   72
** Geometry step: 109, Lattice step: 4
    O      0.49068594     10.49807588      1.76860953      6.57661207
    O      2.09602051     14.97831351      1.76860953      6.57661303
    O     -2.58664763     14.12845629      1.76860953      6.57661269
    O     10.94233459      9.30436376      1.76860953      6.57661207
    O      9.33700002      4.82412614      1.76860953      6.57661303
    O     14.01966815      5.67398335      1.76860953      6.57661269
    N      3.12007878     11.01190054      1.76860953      5.13523010
    N      0.33634569     16.99852057      1.76860953      5.13523062
    N     -3.45636088     11.59443045      1.76860953      5.13523077
    N      8.31294175      8.79053911      1.76860953      5.13523010
    N     11.09667483      2.80391907      1.76860953      5.13523062
    N     14.88938141      8.20800920      1.76860953      5.13523077
    C      0.27433868     11.73296722      1.76860953      3.54959063
    C      1.13474506     14.17350705      1.76860953      3.54959086
    C     -1.40902681     13.69837151      1.76860953      3.54959076
    C     11.15868185      8.06947242      1.76860953      3.54959063
    C     10.29827547      5.62893259      1.76860953      3.54959086
    C     12.84204734      6.10406814      1.76860953      3.54959076
    C      1.39000814     12.71081592      1.76860953      4.25967281
    C     -0.26993080     14.65078184      1.76860953      4.25967286
    C     -1.12002094     12.24324889      1.76860953      4.25967330
    C     10.04301239      7.09162372      1.76860953      4.25967281
    C     11.70295133      5.15165780      1.76860953      4.25967286
    C     12.55304146      7.55919076      1.76860953      4.25967330
    C      2.72615916     12.30925290      1.76860953      3.91232152
    C     -0.59023979     16.00870495      1.76860953      3.91232133
    C     -2.13586264     11.28689156      1.76860953      3.91232125
    C      8.70686137      7.49318674      1.76860953      3.91232152
    C     12.02326031      3.79373469      1.76860953      3.91232133
    C     13.56888317      8.51554808      1.76860953      3.91232125
    C      4.42625529     10.49286472      1.76860953      3.86491835
    C      0.13276927     18.38922211      1.76860953      3.86491817
    C     -4.55895539     10.72277698      1.76860953      3.86491810
    C      7.00676524      9.30957492      1.76860953      3.86491835
    C     11.30025126      1.41321754      1.76860953      3.86491817
    C     15.99197592      9.07966266      1.76860953      3.86491810
    C      4.58164427      9.08572249      1.76860953      4.13595447
    C      1.27370560     19.22735104      1.76860953      4.13595452
    C     -5.85526443     11.29179228      1.76860953      4.13595453
    C      6.85137626     10.71671715      1.76860953      4.13595447
    C     10.15931492      0.57508860      1.76860953      4.13595452
    C     17.28828496      8.51064736      1.76860953      4.13595453
    C      5.58751376     11.30176764      1.76860953      4.13030215
    C     -1.14838353     18.99046445      1.76860953      4.13030204
    C     -4.43906972      9.31264513      1.76860953      4.13030206
    C      5.84550677      8.50067200      1.76860953      4.13030215
    C     12.58140405      0.81197519      1.76860953      4.13030204
    C     15.87209025     10.48979452      1.76860953      4.13030206
    H      3.69935598      8.44711237      1.76860953      0.90724073
    H      2.26789689     18.78256005      1.76860953      0.90724063
    H     -5.96715998     12.37518252      1.76860953      0.90724060
    H      7.73366455     11.35532727      1.76860953      0.90724073
    H      9.16512363      1.01987960      1.76860953      0.90724063
    H     17.40018051      7.42725712      1.76860953      0.90724060
    H      3.49660444     13.08581056      1.76860953      0.88900366
    H     -1.64797999     16.28765546      1.76860953      0.88900380
    H     -1.84857115     10.23138610      1.76860953      0.88900392
    H      7.93641609      6.71662908      1.76860953      0.88900366
    H     13.08100052      3.51478418      1.76860953      0.88900380
    H     13.28159168      9.57105354      1.76860953      0.88900392
    H      5.51427827     12.38718746      1.76860953      0.90666087
    H     -2.05177412     18.38434105      1.76860953      0.90666100
    H     -3.46245592      8.83334830      1.76860953      0.90666098
    H      5.91874226      7.41525218      1.76860953      0.90666087
    H     13.48479465      1.41809859      1.76860953      0.90666100
    H     14.89547644     10.96909135      1.76860953      0.90666098
    H      2.33456889     10.33500411      1.76860953      0.73249201
    H      1.31530776     16.65668985      1.76860953      0.73249143
    H     -3.64980771     12.61315201      1.76860953      0.73249135
    H      9.09845164      9.46743553      1.76860953      0.73249201
    H     10.11771277      3.14574979      1.76860953      0.73249143
    H     15.08282823      7.18928763      1.76860953      0.73249135
