|===============================================================================
|
|  DFTB+ release 24.1
|
|  Copyright (C) 2006 - 2024  DFTB+ developers group
|
|===============================================================================
|
|  When publishing results obtained with DFTB+, please cite the following
|  reference:
|
|  * DFTB+, a software package for efficient approximate density functional
|    theory based atomistic simulations, J. Chem. Phys. 152, 124101 (2020).
|    [doi: 10.1063/1.5143190]
|
|  You should also cite additional publications crediting the parametrization
|  data you use. Please consult the documentation of the SK-files for the
|  references.
|
|===============================================================================

Reading input file 'dftb_in.hsd'
Parser version: 14

--------------------------------------------------------------------------------
Reading SK-files:
/project/design-lab/software/DFTB+/3ob-3-1/O-O.skf
/project/design-lab/software/DFTB+/3ob-3-1/O-N.skf
/project/design-lab/software/DFTB+/3ob-3-1/O-C.skf
/project/design-lab/software/DFTB+/3ob-3-1/O-H.skf
/project/design-lab/software/DFTB+/3ob-3-1/N-N.skf
/project/design-lab/software/DFTB+/3ob-3-1/N-C.skf
/project/design-lab/software/DFTB+/3ob-3-1/N-H.skf
/project/design-lab/software/DFTB+/3ob-3-1/C-C.skf
/project/design-lab/software/DFTB+/3ob-3-1/C-H.skf
/project/design-lab/software/DFTB+/3ob-3-1/H-H.skf
Done.
WARNING!
-> This driver is deprecated and will be removed in future versions.
Please use the GeometryOptimisation driver instead.
Path: dftbplusinput/Driver/ConjugateGradient
Line: 5-13 (File: dftb_in.hsd)



Processed input in HSD format written to 'dftb_pin.hsd'

Starting initialization...
--------------------------------------------------------------------------------
WARNING!
-> Dipole printed for extended system : value printed is not well defined
MPI processes:               8
OpenMP threads:              1
BLACS orbital grid size:     2 x 4
BLACS atom grid size:        2 x 3
Chosen random seed:          534401067
Current stacksize:           unlimited
Mode:                        Conjugate gradient relaxation
Self consistent charges:     Yes
SCC-tolerance:                 0.100000E-04
Max. scc iterations:                   1000
Shell resolved Hubbard:      No
Spin polarisation:           No
Nr. of up electrons:           117.000000
Nr. of down electrons:         117.000000
Periodic boundaries:         Yes
Lattice optimisation:        Yes
Pressure:                        0.000000
Electronic solver:           Relatively robust
Mixer:                       Broyden mixer
Mixing parameter:                  0.200000
Maximal SCC-cycles:                    1000
Nr. of chrg. vec. in memory:           1000
Nr. of moved atoms:                      72
Max. nr. of geometry steps:          100000
Force tolerance:               0.100000E-03
Electronic temperature:              0.100000E-07 H      0.272114E-06 eV
Initial charges:             Read in from 'charges'
Included shells:             O:  s, p
                             N:  s, p
                             C:  s, p
                             H:  s
K-points and weights:           1:  0.125000  0.125000  0.125000     0.031250
                                2:  0.125000  0.125000  0.375000     0.031250
                                3:  0.125000  0.125000  0.625000     0.031250
                                4:  0.125000  0.125000  0.875000     0.031250
                                5:  0.125000  0.375000  0.125000     0.031250
                                6:  0.125000  0.375000  0.375000     0.031250
                                7:  0.125000  0.375000  0.625000     0.031250
                                8:  0.125000  0.375000  0.875000     0.031250
                                9:  0.125000  0.625000  0.125000     0.031250
                               10:  0.125000  0.625000  0.375000     0.031250
                               11:  0.125000  0.625000  0.625000     0.031250
                               12:  0.125000  0.625000  0.875000     0.031250
                               13:  0.125000  0.875000  0.125000     0.031250
                               14:  0.125000  0.875000  0.375000     0.031250
                               15:  0.125000  0.875000  0.625000     0.031250
                               16:  0.125000  0.875000  0.875000     0.031250
                               17:  0.375000  0.125000  0.125000     0.031250
                               18:  0.375000  0.125000  0.375000     0.031250
                               19:  0.375000  0.125000  0.625000     0.031250
                               20:  0.375000  0.125000  0.875000     0.031250
                               21:  0.375000  0.375000  0.125000     0.031250
                               22:  0.375000  0.375000  0.375000     0.031250
                               23:  0.375000  0.375000  0.625000     0.031250
                               24:  0.375000  0.375000  0.875000     0.031250
                               25:  0.375000  0.625000  0.125000     0.031250
                               26:  0.375000  0.625000  0.375000     0.031250
                               27:  0.375000  0.625000  0.625000     0.031250
                               28:  0.375000  0.625000  0.875000     0.031250
                               29:  0.375000  0.875000  0.125000     0.031250
                               30:  0.375000  0.875000  0.375000     0.031250
                               31:  0.375000  0.875000  0.625000     0.031250
                               32:  0.375000  0.875000  0.875000     0.031250

K-points in absolute space:     1:  0.002890  0.005005  0.018685
                                2:  0.002890  0.005005  0.056055
                                3:  0.002890  0.005005  0.093425
                                4:  0.002890  0.005005  0.130795
                                5:  0.002890  0.011679  0.018685
                                6:  0.002890  0.011679  0.056055
                                7:  0.002890  0.011679  0.093425
                                8:  0.002890  0.011679  0.130795
                                9:  0.002890  0.018353  0.018685
                               10:  0.002890  0.018353  0.056055
                               11:  0.002890  0.018353  0.093425
                               12:  0.002890  0.018353  0.130795
                               13:  0.002890  0.025027  0.018685
                               14:  0.002890  0.025027  0.056055
                               15:  0.002890  0.025027  0.093425
                               16:  0.002890  0.025027  0.130795
                               17:  0.008670  0.008342  0.018685
                               18:  0.008670  0.008342  0.056055
                               19:  0.008670  0.008342  0.093425
                               20:  0.008670  0.008342  0.130795
                               21:  0.008670  0.015016  0.018685
                               22:  0.008670  0.015016  0.056055
                               23:  0.008670  0.015016  0.093425
                               24:  0.008670  0.015016  0.130795
                               25:  0.008670  0.021690  0.018685
                               26:  0.008670  0.021690  0.056055
                               27:  0.008670  0.021690  0.093425
                               28:  0.008670  0.021690  0.130795
                               29:  0.008670  0.028364  0.018685
                               30:  0.008670  0.028364  0.056055
                               31:  0.008670  0.028364  0.093425
                               32:  0.008670  0.028364  0.130795

Using Lennard-Jones dispersion corrections
Full 3rd order correction    Yes
Damped SCC                   Yes
Damped species(s):           H                                                 
Extra options:
                             Mulliken analysis
Force type                   original
                             Eigenvector printing

--------------------------------------------------------------------------------

***  Geometry step: 0, Lattice step: 0

 iSCC Total electronic   Diff electronic      SCC error    
    1    0.00000000E+00    0.00000000E+00    0.81171892E-03
    2   -0.10665692E+03   -0.10665692E+03    0.46997898E-03
    3   -0.10665692E+03   -0.26305797E-06    0.10994175E-03
    4   -0.10665692E+03   -0.86936623E-07    0.45956456E-04
    5   -0.10665692E+03   -0.44598494E-08    0.57216191E-05

Total Energy:                     -104.5478020741 H        -2844.8904 eV
Extrapolated to 0K:               -104.5478020741 H        -2844.8904 eV
Total Mermin free energy:         -104.5478020741 H        -2844.8904 eV
Force related energy:             -104.5478020741 H        -2844.8904 eV

Volume:                              0.108394E+05 au^3   0.160623E+04 A^3
Pressure:                           -0.261287E-05 au    -0.768733E+08 Pa
Maximal force component:             0.471739E-03
Averaged force norm:                 0.228860E-03
Maximal Lattice force component:     0.948339E-03 au
Averaged lattice force norm:         0.814480E-03 au
>> Charges saved for restart in charges.dat

--------------------------------------------------------------------------------

***  Geometry step: 1, Lattice step: 0

 iSCC Total electronic   Diff electronic      SCC error    
    1   -0.10665692E+03    0.00000000E+00    0.10957521E-02
    2   -0.10665793E+03   -0.10038174E-02    0.63651193E-03
    3   -0.10665793E+03   -0.66270675E-06    0.31096944E-03
    4   -0.10665793E+03   -0.83523418E-07    0.63826591E-04
    5   -0.10665793E+03   -0.17841145E-07    0.80977953E-05

Total Energy:                     -104.5477929041 H        -2844.8902 eV
Extrapolated to 0K:               -104.5477929041 H        -2844.8902 eV
Total Mermin free energy:         -104.5477929041 H        -2844.8902 eV
Force related energy:             -104.5477929041 H        -2844.8902 eV

Volume:                              0.108394E+05 au^3   0.160623E+04 A^3
Pressure:                           -0.263800E-05 au    -0.776125E+08 Pa
Maximal force component:             0.168352E-02
Averaged force norm:                 0.744721E-03
Maximal Lattice force component:     0.957998E-03 au
Averaged lattice force norm:         0.821866E-03 au
>> Charges saved for restart in charges.dat

--------------------------------------------------------------------------------

***  Geometry step: 2, Lattice step: 0

 iSCC Total electronic   Diff electronic      SCC error    
    1   -0.10665793E+03    0.00000000E+00    0.72246681E-03
    2   -0.10665726E+03    0.66645290E-03    0.42612865E-03
    3   -0.10665726E+03   -0.29128523E-06    0.20522517E-03
    4   -0.10665726E+03   -0.36721332E-07    0.41430469E-04
    5   -0.10665726E+03   -0.79346023E-08    0.52121169E-05

Total Energy:                     -104.5478052434 H        -2844.8905 eV
Extrapolated to 0K:               -104.5478052434 H        -2844.8905 eV
Total Mermin free energy:         -104.5478052434 H        -2844.8905 eV
Force related energy:             -104.5478052434 H        -2844.8905 eV

Volume:                              0.108394E+05 au^3   0.160623E+04 A^3
Pressure:                           -0.262326E-05 au    -0.771788E+08 Pa
Maximal force component:             0.397892E-03
Averaged force norm:                 0.199796E-03
Maximal Lattice force component:     0.952322E-03 au
Averaged lattice force norm:         0.817518E-03 au
>> Charges saved for restart in charges.dat

--------------------------------------------------------------------------------

***  Geometry step: 3, Lattice step: 0

 iSCC Total electronic   Diff electronic      SCC error    
    1   -0.10665726E+03    0.00000000E+00    0.18445877E-03
    2   -0.10665718E+03    0.81120540E-04    0.13852450E-03
    3   -0.10665718E+03   -0.29890117E-08    0.21146544E-04
    4   -0.10665718E+03   -0.18316655E-08    0.55006435E-05

Total Energy:                     -104.5478082336 H        -2844.8906 eV
Extrapolated to 0K:               -104.5478082336 H        -2844.8906 eV
Total Mermin free energy:         -104.5478082336 H        -2844.8906 eV
Force related energy:             -104.5478082336 H        -2844.8906 eV

Volume:                              0.108394E+05 au^3   0.160623E+04 A^3
Pressure:                           -0.266346E-05 au    -0.783617E+08 Pa
Maximal force component:             0.248469E-03
Averaged force norm:                 0.132580E-03
Maximal Lattice force component:     0.967541E-03 au
Averaged lattice force norm:         0.829009E-03 au
>> Charges saved for restart in charges.dat

--------------------------------------------------------------------------------

***  Geometry step: 4, Lattice step: 0

 iSCC Total electronic   Diff electronic      SCC error    
    1   -0.10665718E+03    0.00000000E+00    0.29812530E-03
    2   -0.10665705E+03    0.13553103E-03    0.22364108E-03
    3   -0.10665705E+03   -0.79045606E-08    0.34155082E-04
    4   -0.10665705E+03   -0.46940585E-08    0.11754600E-04
    5   -0.10665705E+03   -0.50174265E-09    0.21356452E-05

Total Energy:                     -104.5478080795 H        -2844.8906 eV
Extrapolated to 0K:               -104.5478080795 H        -2844.8906 eV
Total Mermin free energy:         -104.5478080795 H        -2844.8906 eV
Force related energy:             -104.5478080795 H        -2844.8906 eV

Volume:                              0.108394E+05 au^3   0.160623E+04 A^3
Pressure:                           -0.272727E-05 au    -0.802389E+08 Pa
Maximal force component:             0.604870E-03
Averaged force norm:                 0.278291E-03
Maximal Lattice force component:     0.991864E-03 au
Averaged lattice force norm:         0.847271E-03 au
>> Charges saved for restart in charges.dat

--------------------------------------------------------------------------------

***  Geometry step: 5, Lattice step: 0

 iSCC Total electronic   Diff electronic      SCC error    
    1   -0.10665705E+03    0.00000000E+00    0.15534510E-03
    2   -0.10665712E+03   -0.71848441E-04    0.11748050E-03
    3   -0.10665712E+03   -0.22218956E-08    0.18544221E-04
    4   -0.10665712E+03   -0.13694716E-08    0.51595892E-05

Total Energy:                     -104.5478089299 H        -2844.8906 eV
Extrapolated to 0K:               -104.5478089299 H        -2844.8906 eV
Total Mermin free energy:         -104.5478089299 H        -2844.8906 eV
Force related energy:             -104.5478089299 H        -2844.8906 eV

Volume:                              0.108394E+05 au^3   0.160623E+04 A^3
Pressure:                           -0.269249E-05 au    -0.792157E+08 Pa
Maximal force component:             0.312639E-03
Averaged force norm:                 0.176460E-03
Maximal Lattice force component:     0.978589E-03 au
Averaged lattice force norm:         0.837291E-03 au
>> Charges saved for restart in charges.dat

--------------------------------------------------------------------------------

***  Geometry step: 6, Lattice step: 0

 iSCC Total electronic   Diff electronic      SCC error    
    1   -0.10665712E+03    0.00000000E+00    0.41277670E-03
    2   -0.10665799E+03   -0.87416907E-03    0.27273298E-03
    3   -0.10665799E+03   -0.48573952E-07    0.67169661E-04
    4   -0.10665799E+03   -0.22044915E-07    0.31338494E-04
    5   -0.10665799E+03   -0.88243723E-09    0.38381669E-05

Total Energy:                     -104.5478119933 H        -2844.8907 eV
Extrapolated to 0K:               -104.5478119933 H        -2844.8907 eV
Total Mermin free energy:         -104.5478119933 H        -2844.8907 eV
Force related energy:             -104.5478119933 H        -2844.8907 eV

Volume:                              0.108394E+05 au^3   0.160623E+04 A^3
Pressure:                           -0.255856E-05 au    -0.752754E+08 Pa
Maximal force component:             0.288647E-03
Averaged force norm:                 0.198642E-03
Maximal Lattice force component:     0.928090E-03 au
Averaged lattice force norm:         0.798505E-03 au
>> Charges saved for restart in charges.dat

--------------------------------------------------------------------------------

***  Geometry step: 7, Lattice step: 0

 iSCC Total electronic   Diff electronic      SCC error    
    1   -0.10665799E+03    0.00000000E+00    0.66269896E-03
    2   -0.10665941E+03   -0.14126977E-02    0.43894809E-03
    3   -0.10665941E+03   -0.12651789E-06    0.10720551E-03
    4   -0.10665941E+03   -0.58123248E-07    0.50403991E-04
    5   -0.10665941E+03   -0.22660771E-08    0.63350187E-05

Total Energy:                     -104.5478060669 H        -2844.8905 eV
Extrapolated to 0K:               -104.5478060669 H        -2844.8905 eV
Total Mermin free energy:         -104.5478060669 H        -2844.8905 eV
Force related energy:             -104.5478060669 H        -2844.8905 eV

Volume:                              0.108394E+05 au^3   0.160623E+04 A^3
Pressure:                           -0.233967E-05 au    -0.688355E+08 Pa
Maximal force component:             0.877712E-03
Averaged force norm:                 0.574225E-03
Maximal Lattice force component:     0.845652E-03 au
Averaged lattice force norm:         0.735684E-03 au
>> Charges saved for restart in charges.dat

--------------------------------------------------------------------------------

***  Geometry step: 8, Lattice step: 0

 iSCC Total electronic   Diff electronic      SCC error    
    1   -0.10665941E+03    0.00000000E+00    0.62611555E-03
    2   -0.10665808E+03    0.13287206E-02    0.41446607E-03
    3   -0.10665808E+03   -0.11145696E-06    0.10233291E-03
    4   -0.10665808E+03   -0.50873581E-07    0.47525278E-04
    5   -0.10665808E+03   -0.20328486E-08    0.56405317E-05

Total Energy:                     -104.5478120171 H        -2844.8907 eV
Extrapolated to 0K:               -104.5478120171 H        -2844.8907 eV
Total Mermin free energy:         -104.5478120171 H        -2844.8907 eV
Force related energy:             -104.5478120171 H        -2844.8907 eV

Volume:                              0.108394E+05 au^3   0.160623E+04 A^3
Pressure:                           -0.254744E-05 au    -0.749482E+08 Pa
Maximal force component:             0.323234E-03
Averaged force norm:                 0.217200E-03
Maximal Lattice force component:     0.923908E-03 au
Averaged lattice force norm:         0.795288E-03 au
>> Charges saved for restart in charges.dat

--------------------------------------------------------------------------------

***  Geometry step: 9, Lattice step: 0

 iSCC Total electronic   Diff electronic      SCC error    
    1   -0.10665808E+03    0.00000000E+00    0.25890689E-03
    2   -0.10665718E+03    0.89503683E-03    0.10575301E-03
    3   -0.10665718E+03   -0.83204654E-07    0.38399688E-04
    4   -0.10665718E+03   -0.47856048E-08    0.16281705E-04
    5   -0.10665718E+03   -0.40496673E-09    0.11244525E-05

Total Energy:                     -104.5478158831 H        -2844.8908 eV
Extrapolated to 0K:               -104.5478158831 H        -2844.8908 eV
Total Mermin free energy:         -104.5478158831 H        -2844.8908 eV
Force related energy:             -104.5478158831 H        -2844.8908 eV

Volume:                              0.108394E+05 au^3   0.160623E+04 A^3
Pressure:                           -0.277289E-05 au    -0.815813E+08 Pa
Maximal force component:             0.275153E-03
Averaged force norm:                 0.136673E-03
Maximal Lattice force component:     0.100869E-02 au
Averaged lattice force norm:         0.861002E-03 au
>> Charges saved for restart in charges.dat

--------------------------------------------------------------------------------

***  Geometry step: 10, Lattice step: 0

 iSCC Total electronic   Diff electronic      SCC error    
    1   -0.10665718E+03    0.00000000E+00    0.42109343E-03
    2   -0.10665573E+03    0.14543732E-02    0.17229733E-03
    3   -0.10665573E+03   -0.21938627E-06    0.63673055E-04
    4   -0.10665573E+03   -0.12512942E-07    0.27366695E-04
    5   -0.10665573E+03   -0.10130492E-08    0.18533630E-05

Total Energy:                     -104.5478154556 H        -2844.8908 eV
Extrapolated to 0K:               -104.5478154556 H        -2844.8908 eV
Total Mermin free energy:         -104.5478154556 H        -2844.8908 eV
Force related energy:             -104.5478154556 H        -2844.8908 eV

Volume:                              0.108394E+05 au^3   0.160623E+04 A^3
Pressure:                           -0.313912E-05 au    -0.923560E+08 Pa
Maximal force component:             0.743856E-03
Averaged force norm:                 0.288085E-03
Maximal Lattice force component:     0.114675E-02 au
Averaged lattice force norm:         0.968813E-03 au
>> Charges saved for restart in charges.dat

--------------------------------------------------------------------------------

***  Geometry step: 11, Lattice step: 0

 iSCC Total electronic   Diff electronic      SCC error    
    1   -0.10665573E+03    0.00000000E+00    0.23218799E-03
    2   -0.10665653E+03   -0.80299135E-03    0.95049547E-04
    3   -0.10665653E+03   -0.66679704E-07    0.35105093E-04
    4   -0.10665653E+03   -0.37591690E-08    0.14557293E-04
    5   -0.10665653E+03   -0.30053116E-09    0.98166286E-06

Total Energy:                     -104.5478167132 H        -2844.8908 eV
Extrapolated to 0K:               -104.5478167132 H        -2844.8908 eV
Total Mermin free energy:         -104.5478167132 H        -2844.8908 eV
Force related energy:             -104.5478167132 H        -2844.8908 eV

Volume:                              0.108394E+05 au^3   0.160623E+04 A^3
Pressure:                           -0.293718E-05 au    -0.864147E+08 Pa
Maximal force component:             0.390407E-03
Averaged force norm:                 0.175139E-03
Maximal Lattice force component:     0.107062E-02 au
Averaged lattice force norm:         0.909223E-03 au
>> Charges saved for restart in charges.dat

--------------------------------------------------------------------------------

***  Geometry step: 12, Lattice step: 0

 iSCC Total electronic   Diff electronic      SCC error    
    1   -0.10665653E+03    0.00000000E+00    0.10042207E-02
    2   -0.10665574E+03    0.78982870E-03    0.54153472E-03
    3   -0.10665574E+03   -0.84698770E-06    0.18894319E-03
    4   -0.10665574E+03   -0.12079572E-06    0.50129489E-04
    5   -0.10665574E+03   -0.14990945E-07    0.30951794E-05

Total Energy:                     -104.5478168713 H        -2844.8908 eV
Extrapolated to 0K:               -104.5478168713 H        -2844.8908 eV
Total Mermin free energy:         -104.5478168713 H        -2844.8908 eV
Force related energy:             -104.5478168713 H        -2844.8908 eV

Volume:                              0.108394E+05 au^3   0.160623E+04 A^3
Pressure:                           -0.316614E-05 au    -0.931512E+08 Pa
Maximal force component:             0.550494E-03
Averaged force norm:                 0.292427E-03
Maximal Lattice force component:     0.115830E-02 au
Averaged lattice force norm:         0.975178E-03 au
>> Charges saved for restart in charges.dat

--------------------------------------------------------------------------------

***  Geometry step: 13, Lattice step: 0

 iSCC Total electronic   Diff electronic      SCC error    
    1   -0.10665574E+03    0.00000000E+00    0.48975570E-03
    2   -0.10665613E+03   -0.38708104E-03    0.26339574E-03
    3   -0.10665613E+03   -0.20422350E-06    0.92492529E-04
    4   -0.10665613E+03   -0.29081377E-07    0.24228329E-04
    5   -0.10665613E+03   -0.36313708E-08    0.14251895E-05

Total Energy:                     -104.5478187922 H        -2844.8909 eV
Extrapolated to 0K:               -104.5478187922 H        -2844.8909 eV
Total Mermin free energy:         -104.5478187922 H        -2844.8909 eV
Force related energy:             -104.5478187922 H        -2844.8909 eV

Volume:                              0.108394E+05 au^3   0.160623E+04 A^3
Pressure:                           -0.305333E-05 au    -0.898320E+08 Pa
Maximal force component:             0.195540E-03
Averaged force norm:                 0.121646E-03
Maximal Lattice force component:     0.111509E-02 au
Averaged lattice force norm:         0.942552E-03 au
>> Charges saved for restart in charges.dat

--------------------------------------------------------------------------------

***  Geometry step: 14, Lattice step: 0

 iSCC Total electronic   Diff electronic      SCC error    
    1   -0.10665613E+03    0.00000000E+00    0.46900397E-03
    2   -0.10665729E+03   -0.11613578E-02    0.32668170E-03
    3   -0.10665729E+03   -0.47131736E-06    0.16434168E-03
    4   -0.10665729E+03   -0.49286058E-07    0.24656670E-04
    5   -0.10665729E+03   -0.82093692E-08    0.93354635E-05

Total Energy:                     -104.5478194970 H        -2844.8909 eV
Extrapolated to 0K:               -104.5478194970 H        -2844.8909 eV
Total Mermin free energy:         -104.5478194970 H        -2844.8909 eV
Force related energy:             -104.5478194970 H        -2844.8909 eV

Volume:                              0.108394E+05 au^3   0.160623E+04 A^3
Pressure:                           -0.282064E-05 au    -0.829862E+08 Pa
Maximal force component:             0.297038E-03
Averaged force norm:                 0.155148E-03
Maximal Lattice force component:     0.102687E-02 au
Averaged lattice force norm:         0.874785E-03 au
>> Charges saved for restart in charges.dat

--------------------------------------------------------------------------------

***  Geometry step: 15, Lattice step: 0

 iSCC Total electronic   Diff electronic      SCC error    
    1   -0.10665729E+03    0.00000000E+00    0.17035436E-03
    2   -0.10665686E+03    0.42732408E-03    0.11867603E-03
    3   -0.10665686E+03   -0.63210635E-07    0.59054313E-04
    4   -0.10665686E+03   -0.66135328E-08    0.84728977E-05

Total Energy:                     -104.5478198582 H        -2844.8909 eV
Extrapolated to 0K:               -104.5478198582 H        -2844.8909 eV
Total Mermin free energy:         -104.5478198582 H        -2844.8909 eV
Force related energy:             -104.5478198582 H        -2844.8909 eV

Volume:                              0.108394E+05 au^3   0.160623E+04 A^3
Pressure:                           -0.290370E-05 au    -0.854297E+08 Pa
Maximal force component:             0.170626E-03
Averaged force norm:                 0.872833E-04
Maximal Lattice force component:     0.105836E-02 au
Averaged lattice force norm:         0.898883E-03 au
>> Charges saved for restart in charges.dat

--------------------------------------------------------------------------------

***  Geometry step: 16, Lattice step: 0

 iSCC Total electronic   Diff electronic      SCC error    
    1   -0.10665686E+03    0.00000000E+00    0.16323222E-03
    2   -0.10665730E+03   -0.43841653E-03    0.10128955E-03
    3   -0.10665730E+03   -0.11124953E-07    0.33705288E-04
    4   -0.10665730E+03   -0.53140212E-08    0.12416766E-04
    5   -0.10665730E+03   -0.24925839E-10    0.17624769E-05

Total Energy:                     -104.5478207922 H        -2844.8910 eV
Extrapolated to 0K:               -104.5478207922 H        -2844.8910 eV
Total Mermin free energy:         -104.5478207922 H        -2844.8910 eV
Force related energy:             -104.5478207922 H        -2844.8910 eV

Volume:                              0.108394E+05 au^3   0.160623E+04 A^3
Pressure:                           -0.278715E-05 au    -0.820009E+08 Pa
Maximal force component:             0.117539E-03
Averaged force norm:                 0.745156E-04
Maximal Lattice force component:     0.101495E-02 au
Averaged lattice force norm:         0.864072E-03 au
>> Charges saved for restart in charges.dat

--------------------------------------------------------------------------------

***  Geometry step: 17, Lattice step: 0

 iSCC Total electronic   Diff electronic      SCC error    
    1   -0.10665730E+03    0.00000000E+00    0.26857238E-03
    2   -0.10665801E+03   -0.70703437E-03    0.16834059E-03
    3   -0.10665801E+03   -0.30091755E-07    0.55919726E-04
    4   -0.10665801E+03   -0.14493097E-07    0.18044288E-04
    5   -0.10665801E+03   -0.40273562E-10    0.24453774E-05

Total Energy:                     -104.5478193001 H        -2844.8909 eV
Extrapolated to 0K:               -104.5478193001 H        -2844.8909 eV
Total Mermin free energy:         -104.5478193001 H        -2844.8909 eV
Force related energy:             -104.5478193001 H        -2844.8909 eV

Volume:                              0.108394E+05 au^3   0.160623E+04 A^3
Pressure:                           -0.259310E-05 au    -0.762915E+08 Pa
Maximal force component:             0.530764E-03
Averaged force norm:                 0.221675E-03
Maximal Lattice force component:     0.942643E-03 au
Averaged lattice force norm:         0.806285E-03 au
>> Charges saved for restart in charges.dat

--------------------------------------------------------------------------------

***  Geometry step: 18, Lattice step: 0

 iSCC Total electronic   Diff electronic      SCC error    
    1   -0.10665801E+03    0.00000000E+00    0.24474067E-03
    2   -0.10665737E+03    0.63759613E-03    0.15346454E-03
    3   -0.10665737E+03   -0.24482830E-07    0.49513785E-04
    4   -0.10665737E+03   -0.11796558E-07    0.16405769E-04
    5   -0.10665737E+03   -0.34887648E-10    0.23290154E-05

Total Energy:                     -104.5478208101 H        -2844.8910 eV
Extrapolated to 0K:               -104.5478208101 H        -2844.8910 eV
Total Mermin free energy:         -104.5478208101 H        -2844.8910 eV
Force related energy:             -104.5478208101 H        -2844.8910 eV

Volume:                              0.108394E+05 au^3   0.160623E+04 A^3
Pressure:                           -0.276767E-05 au    -0.814275E+08 Pa
Maximal force component:             0.156330E-03
Averaged force norm:                 0.852197E-04
Maximal Lattice force component:     0.100769E-02 au
Averaged lattice force norm:         0.858262E-03 au
>> Charges saved for restart in charges.dat

--------------------------------------------------------------------------------

***  Geometry step: 19, Lattice step: 0

 iSCC Total electronic   Diff electronic      SCC error    
    1   -0.10665737E+03    0.00000000E+00    0.22506854E-03
    2   -0.10665800E+03   -0.62852089E-03    0.15025634E-03
    3   -0.10665800E+03   -0.27536501E-07    0.46402668E-04
    4   -0.10665800E+03   -0.42370374E-08    0.13493337E-04
    5   -0.10665800E+03   -0.68128259E-09    0.26300776E-05

Total Energy:                     -104.5478208861 H        -2844.8910 eV
Extrapolated to 0K:               -104.5478208861 H        -2844.8910 eV
Total Mermin free energy:         -104.5478208861 H        -2844.8910 eV
Force related energy:             -104.5478208861 H        -2844.8910 eV

Volume:                              0.108394E+05 au^3   0.160623E+04 A^3
Pressure:                           -0.260804E-05 au    -0.767311E+08 Pa
Maximal force component:             0.322102E-03
Averaged force norm:                 0.126488E-03
Maximal Lattice force component:     0.947892E-03 au
Averaged lattice force norm:         0.811115E-03 au
>> Charges saved for restart in charges.dat

--------------------------------------------------------------------------------

***  Geometry step: 20, Lattice step: 0

 iSCC Total electronic   Diff electronic      SCC error    
    1   -0.10665800E+03    0.00000000E+00    0.10506197E-03
    2   -0.10665770E+03    0.29842575E-03    0.69931354E-04
    3   -0.10665770E+03   -0.61986611E-08    0.21511457E-04
    4   -0.10665770E+03   -0.96544284E-09    0.63994725E-05

Total Energy:                     -104.5478212305 H        -2844.8910 eV
Extrapolated to 0K:               -104.5478212305 H        -2844.8910 eV
Total Mermin free energy:         -104.5478212305 H        -2844.8910 eV
Force related energy:             -104.5478212305 H        -2844.8910 eV

Volume:                              0.108394E+05 au^3   0.160623E+04 A^3
Pressure:                           -0.268547E-05 au    -0.790091E+08 Pa
Maximal force component:             0.113041E-03
Averaged force norm:                 0.524663E-04
Maximal Lattice force component:     0.976827E-03 au
Averaged lattice force norm:         0.833948E-03 au
>> Charges saved for restart in charges.dat

--------------------------------------------------------------------------------

***  Geometry step: 21, Lattice step: 0

 iSCC Total electronic   Diff electronic      SCC error    
    1   -0.10665770E+03    0.00000000E+00    0.15975647E-03
    2   -0.10665812E+03   -0.41512038E-03    0.74139220E-04
    3   -0.10665812E+03   -0.40671679E-07    0.27072065E-04
    4   -0.10665812E+03   -0.30805012E-08    0.15515587E-04
    5   -0.10665812E+03   -0.35475978E-09    0.11792484E-05

Total Energy:                     -104.5478214599 H        -2844.8910 eV
Extrapolated to 0K:               -104.5478214599 H        -2844.8910 eV
Total Mermin free energy:         -104.5478214599 H        -2844.8910 eV
Force related energy:             -104.5478214599 H        -2844.8910 eV

Volume:                              0.108394E+05 au^3   0.160623E+04 A^3
Pressure:                           -0.257137E-05 au    -0.756524E+08 Pa
Maximal force component:             0.859835E-04
Averaged force norm:                 0.528459E-04
Maximal Lattice force component:     0.933930E-03 au
Averaged lattice force norm:         0.800680E-03 au
>> Charges saved for restart in charges.dat

--------------------------------------------------------------------------------

***  Geometry step: 22, Lattice step: 0

 iSCC Total electronic   Diff electronic      SCC error    
    1   -0.10665812E+03    0.00000000E+00    0.35783291E-04
    2   -0.10665803E+03    0.89194690E-04    0.16830028E-04
    3   -0.10665803E+03   -0.18968507E-08    0.61919859E-05

Total Energy:                     -104.5478214783 H        -2844.8910 eV
Extrapolated to 0K:               -104.5478214783 H        -2844.8910 eV
Total Mermin free energy:         -104.5478214783 H        -2844.8910 eV
Force related energy:             -104.5478214783 H        -2844.8910 eV

Volume:                              0.108394E+05 au^3   0.160623E+04 A^3
Pressure:                           -0.259706E-05 au    -0.764082E+08 Pa
Maximal force component:             0.731407E-04
Averaged force norm:                 0.399720E-04
Maximal Lattice force component:     0.943591E-03 au
Averaged lattice force norm:         0.808154E-03 au
>> Charges saved for restart in charges.dat

--------------------------------------------------------------------------------

***  Geometry step: 23, Lattice step: 0

 iSCC Total electronic   Diff electronic      SCC error    
    1   -0.10665803E+03    0.00000000E+00    0.61919859E-05

Total Energy:                     -104.5478214783 H        -2844.8910 eV
Extrapolated to 0K:               -104.5478214783 H        -2844.8910 eV
Total Mermin free energy:         -104.5478214783 H        -2844.8910 eV
Force related energy:             -104.5478214783 H        -2844.8910 eV

Volume:                              0.108394E+05 au^3   0.160623E+04 A^3
Pressure:                           -0.259706E-05 au    -0.764082E+08 Pa
Maximal force component:             0.731407E-04
Averaged force norm:                 0.399720E-04
Maximal Lattice force component:     0.943591E-03 au
Averaged lattice force norm:         0.808154E-03 au
>> Charges saved for restart in charges.dat

--------------------------------------------------------------------------------

***  Geometry step: 24, Lattice step: 1

 iSCC Total electronic   Diff electronic      SCC error    
    1   -0.10665803E+03    0.00000000E+00    0.60217121E-02
    2   -0.10679155E+03   -0.13352611E+00    0.35980943E-02
    3   -0.10679156E+03   -0.10231470E-04    0.72553299E-03
    4   -0.10679157E+03   -0.31725506E-05    0.22753743E-03
    5   -0.10679157E+03   -0.20141231E-06    0.32148988E-04
    6   -0.10679157E+03   -0.26319611E-07    0.11204518E-04
    7   -0.10679157E+03   -0.48167692E-09    0.35476379E-05

Total Energy:                     -104.5453500054 H        -2844.8237 eV
Extrapolated to 0K:               -104.5453500054 H        -2844.8237 eV
Total Mermin free energy:         -104.5453500054 H        -2844.8237 eV
Force related energy:             -104.5453500054 H        -2844.8237 eV

Volume:                              0.107146E+05 au^3   0.158775E+04 A^3
Pressure:                            0.353336E-04 au     0.103955E+10 Pa
Maximal force component:             0.986364E-02
Averaged force norm:                 0.425918E-02
Maximal Lattice force component:     0.131444E-01 au
Averaged lattice force norm:         0.107375E-01 au
>> Charges saved for restart in charges.dat

--------------------------------------------------------------------------------

***  Geometry step: 25, Lattice step: 1

 iSCC Total electronic   Diff electronic      SCC error    
    1   -0.10679157E+03    0.00000000E+00    0.40477984E-01
    2   -0.10660548E+03    0.18608320E+00    0.25467383E-01
    3   -0.10660633E+03   -0.84751916E-03    0.10527851E-01
    4   -0.10660658E+03   -0.24802675E-03    0.33971703E-02
    5   -0.10660660E+03   -0.15549310E-04    0.74402267E-03
    6   -0.10660660E+03   -0.32530185E-05    0.23452010E-03
    7   -0.10660660E+03   -0.39596614E-07    0.62989726E-04
    8   -0.10660660E+03   -0.13596491E-07    0.89518870E-05

Total Energy:                     -104.5394427491 H        -2844.6630 eV
Extrapolated to 0K:               -104.5394427491 H        -2844.6630 eV
Total Mermin free energy:         -104.5394427491 H        -2844.6630 eV
Force related energy:             -104.5394427491 H        -2844.6630 eV

Volume:                              0.107146E+05 au^3   0.158775E+04 A^3
Pressure:                           -0.477954E-05 au    -0.140619E+09 Pa
Maximal force component:             0.348039E-01
Averaged force norm:                 0.156086E-01
Maximal Lattice force component:     0.189911E-02 au
Averaged lattice force norm:         0.176804E-02 au
>> Charges saved for restart in charges.dat

--------------------------------------------------------------------------------

***  Geometry step: 26, Lattice step: 1

 iSCC Total electronic   Diff electronic      SCC error    
    1   -0.10660660E+03    0.00000000E+00    0.28068535E-01
    2   -0.10673950E+03   -0.13289882E+00    0.18028488E-01
    3   -0.10673992E+03   -0.42558280E-03    0.79569155E-02
    4   -0.10674005E+03   -0.12406769E-03    0.23685073E-02
    5   -0.10674006E+03   -0.89148954E-05    0.53196607E-03
    6   -0.10674006E+03   -0.15807789E-05    0.19147280E-03
    7   -0.10674006E+03   -0.35689013E-07    0.42570159E-04
    8   -0.10674006E+03   -0.26653737E-08    0.52507719E-05

Total Energy:                     -104.5461589048 H        -2844.8457 eV
Extrapolated to 0K:               -104.5461589048 H        -2844.8457 eV
Total Mermin free energy:         -104.5461589048 H        -2844.8457 eV
Force related energy:             -104.5461589048 H        -2844.8457 eV

Volume:                              0.107146E+05 au^3   0.158775E+04 A^3
Pressure:                            0.237918E-04 au     0.699979E+09 Pa
Maximal force component:             0.730795E-02
Averaged force norm:                 0.316430E-02
Maximal Lattice force component:     0.881705E-02 au
Averaged lattice force norm:         0.721526E-02 au
>> Charges saved for restart in charges.dat

--------------------------------------------------------------------------------

***  Geometry step: 27, Lattice step: 1

 iSCC Total electronic   Diff electronic      SCC error    
    1   -0.10674006E+03    0.00000000E+00    0.41792733E-02
    2   -0.10671469E+03    0.25369338E-01    0.24853378E-02
    3   -0.10671469E+03   -0.51364454E-05    0.10001499E-02
    4   -0.10671469E+03   -0.80288922E-06    0.26068307E-03
    5   -0.10671469E+03   -0.10584019E-06    0.22825414E-04
    6   -0.10671469E+03   -0.33829636E-07    0.12528511E-04
    7   -0.10671469E+03   -0.53262283E-10    0.24160451E-05

Total Energy:                     -104.5468500903 H        -2844.8645 eV
Extrapolated to 0K:               -104.5468500903 H        -2844.8645 eV
Total Mermin free energy:         -104.5468500903 H        -2844.8645 eV
Force related energy:             -104.5468500903 H        -2844.8645 eV

Volume:                              0.107146E+05 au^3   0.158775E+04 A^3
Pressure:                            0.167550E-04 au     0.492949E+09 Pa
Maximal force component:             0.430658E-02
Averaged force norm:                 0.215925E-02
Maximal Lattice force component:     0.619321E-02 au
Averaged lattice force norm:         0.507766E-02 au
>> Charges saved for restart in charges.dat

--------------------------------------------------------------------------------

***  Geometry step: 28, Lattice step: 1

 iSCC Total electronic   Diff electronic      SCC error    
    1   -0.10671469E+03    0.00000000E+00    0.67504885E-02
    2   -0.10667339E+03    0.41304160E-01    0.40106007E-02
    3   -0.10667340E+03   -0.13328545E-04    0.16084969E-02
    4   -0.10667341E+03   -0.21669676E-05    0.42851175E-03
    5   -0.10667341E+03   -0.26467617E-06    0.37555235E-04
    6   -0.10667341E+03   -0.91134723E-07    0.22797733E-04
    7   -0.10667341E+03   -0.14036061E-09    0.39713329E-05

Total Energy:                     -104.5468105325 H        -2844.8635 eV
Extrapolated to 0K:               -104.5468105325 H        -2844.8635 eV
Total Mermin free energy:         -104.5468105325 H        -2844.8635 eV
Force related energy:             -104.5468105325 H        -2844.8635 eV

Volume:                              0.107146E+05 au^3   0.158775E+04 A^3
Pressure:                            0.551103E-05 au     0.162140E+09 Pa
Maximal force component:             0.790598E-02
Averaged force norm:                 0.344107E-02
Maximal Lattice force component:     0.200072E-02 au
Averaged lattice force norm:         0.168788E-02 au
>> Charges saved for restart in charges.dat

--------------------------------------------------------------------------------

***  Geometry step: 29, Lattice step: 1

 iSCC Total electronic   Diff electronic      SCC error    
    1   -0.10667341E+03    0.00000000E+00    0.35358219E-02
    2   -0.10669518E+03   -0.21776509E-01    0.21126562E-02
    3   -0.10669519E+03   -0.35987635E-05    0.84220478E-03
    4   -0.10669519E+03   -0.60080706E-06    0.22451300E-03
    5   -0.10669519E+03   -0.73549799E-07    0.19568408E-04
    6   -0.10669519E+03   -0.25078748E-07    0.98033896E-05

Total Energy:                     -104.5470087724 H        -2844.8689 eV
Extrapolated to 0K:               -104.5470087724 H        -2844.8689 eV
Total Mermin free energy:         -104.5470087724 H        -2844.8689 eV
Force related energy:             -104.5470087724 H        -2844.8689 eV

Volume:                              0.107146E+05 au^3   0.158775E+04 A^3
Pressure:                            0.114124E-04 au     0.335763E+09 Pa
Maximal force component:             0.551481E-02
Averaged force norm:                 0.237957E-02
Maximal Lattice force component:     0.420111E-02 au
Averaged lattice force norm:         0.345874E-02 au
>> Charges saved for restart in charges.dat

--------------------------------------------------------------------------------

***  Geometry step: 30, Lattice step: 1

 iSCC Total electronic   Diff electronic      SCC error    
    1   -0.10669519E+03    0.00000000E+00    0.24316521E-01
    2   -0.10669546E+03   -0.27507752E-03    0.15738385E-01
    3   -0.10669619E+03   -0.72495043E-03    0.65070574E-02
    4   -0.10669629E+03   -0.10204007E-03    0.14813826E-02
    5   -0.10669630E+03   -0.12869666E-04    0.21525684E-03
    6   -0.10669630E+03   -0.63644642E-06    0.13183273E-03
    7   -0.10669630E+03   -0.10780511E-07    0.20182095E-04
    8   -0.10669630E+03   -0.21257307E-08    0.43064427E-05

Total Energy:                     -104.5457535760 H        -2844.8347 eV
Extrapolated to 0K:               -104.5457535760 H        -2844.8347 eV
Total Mermin free energy:         -104.5457535760 H        -2844.8347 eV
Force related energy:             -104.5457535760 H        -2844.8347 eV

Volume:                              0.107146E+05 au^3   0.158775E+04 A^3
Pressure:                            0.105104E-04 au     0.309227E+09 Pa
Maximal force component:             0.165287E-01
Averaged force norm:                 0.698874E-02
Maximal Lattice force component:     0.390655E-02 au
Averaged lattice force norm:         0.319214E-02 au
>> Charges saved for restart in charges.dat

--------------------------------------------------------------------------------

***  Geometry step: 31, Lattice step: 1

 iSCC Total electronic   Diff electronic      SCC error    
    1   -0.10669630E+03    0.00000000E+00    0.17881120E-01
    2   -0.10669475E+03    0.15519128E-02    0.11512178E-01
    3   -0.10669515E+03   -0.39773446E-03    0.47111298E-02
    4   -0.10669520E+03   -0.54037347E-04    0.10829516E-02
    5   -0.10669521E+03   -0.68429057E-05    0.16358624E-03
    6   -0.10669521E+03   -0.35613301E-06    0.10018171E-03
    7   -0.10669521E+03   -0.53668714E-09    0.13394832E-04
    8   -0.10669521E+03   -0.21269386E-08    0.33424128E-05

Total Energy:                     -104.5472133750 H        -2844.8744 eV
Extrapolated to 0K:               -104.5472133750 H        -2844.8744 eV
Total Mermin free energy:         -104.5472133750 H        -2844.8744 eV
Force related energy:             -104.5472133750 H        -2844.8744 eV

Volume:                              0.107146E+05 au^3   0.158775E+04 A^3
Pressure:                            0.110316E-04 au     0.324561E+09 Pa
Maximal force component:             0.152789E-02
Averaged force norm:                 0.666607E-03
Maximal Lattice force component:     0.407060E-02 au
Averaged lattice force norm:         0.334266E-02 au
>> Charges saved for restart in charges.dat

--------------------------------------------------------------------------------

***  Geometry step: 32, Lattice step: 1

 iSCC Total electronic   Diff electronic      SCC error    
    1   -0.10669521E+03    0.00000000E+00    0.18193117E-02
    2   -0.10669436E+03    0.85399633E-03    0.40713131E-03
    3   -0.10669437E+03   -0.12102248E-04    0.31191410E-03
    4   -0.10669437E+03   -0.60179073E-06    0.67301154E-04
    5   -0.10669437E+03   -0.19635905E-07    0.10453482E-04
    6   -0.10669437E+03   -0.12044836E-08    0.48286158E-05

Total Energy:                     -104.5472391221 H        -2844.8751 eV
Extrapolated to 0K:               -104.5472391221 H        -2844.8751 eV
Total Mermin free energy:         -104.5472391221 H        -2844.8751 eV
Force related energy:             -104.5472391221 H        -2844.8751 eV

Volume:                              0.107146E+05 au^3   0.158775E+04 A^3
Pressure:                            0.105278E-04 au     0.309739E+09 Pa
Maximal force component:             0.205379E-02
Averaged force norm:                 0.992847E-03
Maximal Lattice force component:     0.388062E-02 au
Averaged lattice force norm:         0.319010E-02 au
>> Charges saved for restart in charges.dat

--------------------------------------------------------------------------------

***  Geometry step: 33, Lattice step: 1

 iSCC Total electronic   Diff electronic      SCC error    
    1   -0.10669437E+03    0.00000000E+00    0.67587769E-03
    2   -0.10669469E+03   -0.32151885E-03    0.15057873E-03
    3   -0.10669469E+03   -0.16807624E-05    0.11558732E-03
    4   -0.10669469E+03   -0.83112553E-07    0.25223511E-04
    5   -0.10669469E+03   -0.27304026E-08    0.41231677E-05

Total Energy:                     -104.5472531358 H        -2844.8755 eV
Extrapolated to 0K:               -104.5472531358 H        -2844.8755 eV
Total Mermin free energy:         -104.5472531358 H        -2844.8755 eV
Force related energy:             -104.5472531358 H        -2844.8755 eV

Volume:                              0.107146E+05 au^3   0.158775E+04 A^3
Pressure:                            0.107150E-04 au     0.315245E+09 Pa
Maximal force component:             0.126845E-02
Averaged force norm:                 0.567409E-03
Maximal Lattice force component:     0.395121E-02 au
Averaged lattice force norm:         0.324674E-02 au
>> Charges saved for restart in charges.dat

--------------------------------------------------------------------------------

***  Geometry step: 34, Lattice step: 1

 iSCC Total electronic   Diff electronic      SCC error    
    1   -0.10669469E+03    0.00000000E+00    0.97032408E-03
    2   -0.10669297E+03    0.17203295E-02    0.69934738E-03
    3   -0.10669297E+03   -0.29821898E-06    0.10198389E-03
    4   -0.10669297E+03   -0.12942898E-06    0.54163559E-04
    5   -0.10669297E+03   -0.10394885E-07    0.10203839E-04
    6   -0.10669297E+03   -0.21863400E-08    0.16400647E-05

Total Energy:                     -104.5472690024 H        -2844.8759 eV
Extrapolated to 0K:               -104.5472690024 H        -2844.8759 eV
Total Mermin free energy:         -104.5472690024 H        -2844.8759 eV
Force related energy:             -104.5472690024 H        -2844.8759 eV

Volume:                              0.107146E+05 au^3   0.158775E+04 A^3
Pressure:                            0.100870E-04 au     0.296770E+09 Pa
Maximal force component:             0.132012E-02
Averaged force norm:                 0.573037E-03
Maximal Lattice force component:     0.371743E-02 au
Averaged lattice force norm:         0.305658E-02 au
>> Charges saved for restart in charges.dat

--------------------------------------------------------------------------------

***  Geometry step: 35, Lattice step: 1

 iSCC Total electronic   Diff electronic      SCC error    
    1   -0.10669297E+03    0.00000000E+00    0.27329664E-03
    2   -0.10669346E+03   -0.48599111E-03    0.19667521E-03
    3   -0.10669346E+03   -0.23384672E-07    0.28419188E-04
    4   -0.10669346E+03   -0.10268650E-07    0.15155544E-04
    5   -0.10669346E+03   -0.81762153E-09    0.28328489E-05

Total Energy:                     -104.5472718868 H        -2844.8760 eV
Extrapolated to 0K:               -104.5472718868 H        -2844.8760 eV
Total Mermin free energy:         -104.5472718868 H        -2844.8760 eV
Force related energy:             -104.5472718868 H        -2844.8760 eV

Volume:                              0.107146E+05 au^3   0.158775E+04 A^3
Pressure:                            0.102622E-04 au     0.301925E+09 Pa
Maximal force component:             0.783277E-03
Averaged force norm:                 0.380054E-03
Maximal Lattice force component:     0.378265E-02 au
Averaged lattice force norm:         0.310963E-02 au
>> Charges saved for restart in charges.dat

--------------------------------------------------------------------------------

***  Geometry step: 36, Lattice step: 1

 iSCC Total electronic   Diff electronic      SCC error    
    1   -0.10669346E+03    0.00000000E+00    0.41934532E-03
    2   -0.10669267E+03    0.79261760E-03    0.25107929E-03
    3   -0.10669267E+03   -0.19277574E-06    0.14092862E-03
    4   -0.10669267E+03   -0.52837336E-07    0.84733517E-04
    5   -0.10669267E+03   -0.28609577E-08    0.10391653E-04
    6   -0.10669267E+03   -0.19132926E-08    0.94222024E-06

Total Energy:                     -104.5472860217 H        -2844.8764 eV
Extrapolated to 0K:               -104.5472860217 H        -2844.8764 eV
Total Mermin free energy:         -104.5472860217 H        -2844.8764 eV
Force related energy:             -104.5472860217 H        -2844.8764 eV

Volume:                              0.107146E+05 au^3   0.158775E+04 A^3
Pressure:                            0.100074E-04 au     0.294429E+09 Pa
Maximal force component:             0.523540E-03
Averaged force norm:                 0.300066E-03
Maximal Lattice force component:     0.368781E-02 au
Averaged lattice force norm:         0.303248E-02 au
>> Charges saved for restart in charges.dat

--------------------------------------------------------------------------------

***  Geometry step: 37, Lattice step: 1

 iSCC Total electronic   Diff electronic      SCC error    
    1   -0.10669267E+03    0.00000000E+00    0.67966790E-03
    2   -0.10669135E+03    0.13190722E-02    0.40605888E-03
    3   -0.10669135E+03   -0.50486238E-06    0.22808179E-03
    4   -0.10669135E+03   -0.13884342E-06    0.13701930E-03
    5   -0.10669135E+03   -0.75220612E-08    0.16895443E-04
    6   -0.10669135E+03   -0.49450506E-08    0.15566457E-05

Total Energy:                     -104.5472613051 H        -2844.8757 eV
Extrapolated to 0K:               -104.5472613051 H        -2844.8757 eV
Total Mermin free energy:         -104.5472613051 H        -2844.8757 eV
Force related energy:             -104.5472613051 H        -2844.8757 eV

Volume:                              0.107146E+05 au^3   0.158775E+04 A^3
Pressure:                            0.959569E-05 au     0.282315E+09 Pa
Maximal force component:             0.161856E-02
Averaged force norm:                 0.925648E-03
Maximal Lattice force component:     0.353455E-02 au
Averaged lattice force norm:         0.290784E-02 au
>> Charges saved for restart in charges.dat

--------------------------------------------------------------------------------

***  Geometry step: 38, Lattice step: 1

 iSCC Total electronic   Diff electronic      SCC error    
    1   -0.10669135E+03    0.00000000E+00    0.62797613E-03
    2   -0.10669256E+03   -0.12142672E-02    0.37233546E-03
    3   -0.10669256E+03   -0.42673709E-06    0.20927078E-03
    4   -0.10669256E+03   -0.11708360E-06    0.12580435E-03
    5   -0.10669256E+03   -0.63649566E-08    0.15469839E-04
    6   -0.10669256E+03   -0.41748507E-08    0.14746328E-05

Total Energy:                     -104.5472862088 H        -2844.8764 eV
Extrapolated to 0K:               -104.5472862088 H        -2844.8764 eV
Total Mermin free energy:         -104.5472862088 H        -2844.8764 eV
Force related energy:             -104.5472862088 H        -2844.8764 eV

Volume:                              0.107146E+05 au^3   0.158775E+04 A^3
Pressure:                            0.997429E-05 au     0.293454E+09 Pa
Maximal force component:             0.611149E-03
Averaged force norm:                 0.335260E-03
Maximal Lattice force component:     0.367548E-02 au
Averaged lattice force norm:         0.302245E-02 au
>> Charges saved for restart in charges.dat

--------------------------------------------------------------------------------

***  Geometry step: 39, Lattice step: 1

 iSCC Total electronic   Diff electronic      SCC error    
    1   -0.10669256E+03    0.00000000E+00    0.14004687E-02
    2   -0.10668922E+03    0.33428023E-02    0.90623108E-03
    3   -0.10668922E+03   -0.42370610E-06    0.19664019E-03
    4   -0.10668922E+03   -0.20795099E-06    0.50914293E-04
    5   -0.10668922E+03   -0.47942308E-08    0.10204634E-04
    6   -0.10668922E+03   -0.33772807E-08    0.21442183E-05

Total Energy:                     -104.5472893652 H        -2844.8765 eV
Extrapolated to 0K:               -104.5472893652 H        -2844.8765 eV
Total Mermin free energy:         -104.5472893652 H        -2844.8765 eV
Force related energy:             -104.5472893652 H        -2844.8765 eV

Volume:                              0.107146E+05 au^3   0.158775E+04 A^3
Pressure:                            0.936287E-05 au     0.275465E+09 Pa
Maximal force component:             0.747533E-03
Averaged force norm:                 0.457471E-03
Maximal Lattice force component:     0.344695E-02 au
Averaged lattice force norm:         0.283753E-02 au
>> Charges saved for restart in charges.dat

--------------------------------------------------------------------------------

***  Geometry step: 40, Lattice step: 1

 iSCC Total electronic   Diff electronic      SCC error    
    1   -0.10668922E+03    0.00000000E+00    0.58000233E-03
    2   -0.10669061E+03   -0.13901755E-02    0.37518344E-03
    3   -0.10669061E+03   -0.73351444E-07    0.82241728E-04
    4   -0.10669061E+03   -0.36095443E-07    0.21128138E-04
    5   -0.10669061E+03   -0.82418694E-09    0.42244091E-05

Total Energy:                     -104.5472925958 H        -2844.8766 eV
Extrapolated to 0K:               -104.5472925958 H        -2844.8766 eV
Total Mermin free energy:         -104.5472925958 H        -2844.8766 eV
Force related energy:             -104.5472925958 H        -2844.8766 eV

Volume:                              0.107146E+05 au^3   0.158775E+04 A^3
Pressure:                            0.961668E-05 au     0.282932E+09 Pa
Maximal force component:             0.391305E-03
Averaged force norm:                 0.228292E-03
Maximal Lattice force component:     0.354181E-02 au
Averaged lattice force norm:         0.291427E-02 au
>> Charges saved for restart in charges.dat

--------------------------------------------------------------------------------

***  Geometry step: 41, Lattice step: 1

 iSCC Total electronic   Diff electronic      SCC error    
    1   -0.10669061E+03    0.00000000E+00    0.43424131E-03
    2   -0.10669027E+03    0.33615466E-03    0.23181195E-03
    3   -0.10669027E+03   -0.10973721E-06    0.10826087E-03
    4   -0.10669027E+03   -0.11160992E-07    0.26008903E-04
    5   -0.10669027E+03   -0.17255530E-08    0.25958943E-05

Total Energy:                     -104.5472989851 H        -2844.8768 eV
Extrapolated to 0K:               -104.5472989851 H        -2844.8768 eV
Total Mermin free energy:         -104.5472989851 H        -2844.8768 eV
Force related energy:             -104.5472989851 H        -2844.8768 eV

Volume:                              0.107146E+05 au^3   0.158775E+04 A^3
Pressure:                            0.952481E-05 au     0.280230E+09 Pa
Maximal force component:             0.320669E-03
Averaged force norm:                 0.198388E-03
Maximal Lattice force component:     0.350775E-02 au
Averaged lattice force norm:         0.288645E-02 au
>> Charges saved for restart in charges.dat

--------------------------------------------------------------------------------

***  Geometry step: 42, Lattice step: 1

 iSCC Total electronic   Diff electronic      SCC error    
    1   -0.10669027E+03    0.00000000E+00    0.70084461E-03
    2   -0.10668972E+03    0.55238886E-03    0.37324660E-03
    3   -0.10668972E+03   -0.28980706E-06    0.17558240E-03
    4   -0.10668972E+03   -0.29539507E-07    0.42010207E-04
    5   -0.10668972E+03   -0.45061057E-08    0.41659084E-05

Total Energy:                     -104.5472970785 H        -2844.8767 eV
Extrapolated to 0K:               -104.5472970785 H        -2844.8767 eV
Total Mermin free energy:         -104.5472970785 H        -2844.8767 eV
Force related energy:             -104.5472970785 H        -2844.8767 eV

Volume:                              0.107146E+05 au^3   0.158775E+04 A^3
Pressure:                            0.937701E-05 au     0.275881E+09 Pa
Maximal force component:             0.812066E-03
Averaged force norm:                 0.489257E-03
Maximal Lattice force component:     0.345294E-02 au
Averaged lattice force norm:         0.284170E-02 au
>> Charges saved for restart in charges.dat

--------------------------------------------------------------------------------

***  Geometry step: 43, Lattice step: 1

 iSCC Total electronic   Diff electronic      SCC error    
    1   -0.10668972E+03    0.00000000E+00    0.44017962E-03
    2   -0.10669007E+03   -0.34663640E-03    0.23502454E-03
    3   -0.10669007E+03   -0.11300314E-06    0.10991724E-03
    4   -0.10669007E+03   -0.11565888E-07    0.25877334E-04
    5   -0.10669007E+03   -0.17819275E-08    0.25061800E-05

Total Energy:                     -104.5473000433 H        -2844.8768 eV
Extrapolated to 0K:               -104.5473000433 H        -2844.8768 eV
Total Mermin free energy:         -104.5473000433 H        -2844.8768 eV
Force related energy:             -104.5473000433 H        -2844.8768 eV

Volume:                              0.107146E+05 au^3   0.158775E+04 A^3
Pressure:                            0.946852E-05 au     0.278573E+09 Pa
Maximal force component:             0.456601E-03
Averaged force norm:                 0.286881E-03
Maximal Lattice force component:     0.348687E-02 au
Averaged lattice force norm:         0.286941E-02 au
>> Charges saved for restart in charges.dat

--------------------------------------------------------------------------------

***  Geometry step: 44, Lattice step: 1

 iSCC Total electronic   Diff electronic      SCC error    
    1   -0.10669007E+03    0.00000000E+00    0.44743904E-03
    2   -0.10668884E+03    0.12261692E-02    0.29227125E-03
    3   -0.10668884E+03   -0.11779807E-06    0.11867546E-03
    4   -0.10668884E+03   -0.19579062E-07    0.41874164E-04
    5   -0.10668884E+03   -0.41350035E-08    0.61693643E-05

Total Energy:                     -104.5473046551 H        -2844.8769 eV
Extrapolated to 0K:               -104.5473046551 H        -2844.8769 eV
Total Mermin free energy:         -104.5473046551 H        -2844.8769 eV
Force related energy:             -104.5473046551 H        -2844.8769 eV

Volume:                              0.107146E+05 au^3   0.158775E+04 A^3
Pressure:                            0.916317E-05 au     0.269590E+09 Pa
Maximal force component:             0.457185E-03
Averaged force norm:                 0.282526E-03
Maximal Lattice force component:     0.337315E-02 au
Averaged lattice force norm:         0.277703E-02 au
>> Charges saved for restart in charges.dat

--------------------------------------------------------------------------------

***  Geometry step: 45, Lattice step: 1

 iSCC Total electronic   Diff electronic      SCC error    
    1   -0.10668884E+03    0.00000000E+00    0.10521008E-03
    2   -0.10668912E+03   -0.27971522E-03    0.68278712E-04
    3   -0.10668912E+03   -0.59752381E-08    0.27672360E-04
    4   -0.10668912E+03   -0.99532826E-09    0.96173545E-05

Total Energy:                     -104.5473050937 H        -2844.8769 eV
Extrapolated to 0K:               -104.5473050937 H        -2844.8769 eV
Total Mermin free energy:         -104.5473050937 H        -2844.8769 eV
Force related energy:             -104.5473050937 H        -2844.8769 eV

Volume:                              0.107146E+05 au^3   0.158775E+04 A^3
Pressure:                            0.923190E-05 au     0.271612E+09 Pa
Maximal force component:             0.419627E-03
Averaged force norm:                 0.208186E-03
Maximal Lattice force component:     0.339875E-02 au
Averaged lattice force norm:         0.279782E-02 au
>> Charges saved for restart in charges.dat

--------------------------------------------------------------------------------

***  Geometry step: 46, Lattice step: 1

 iSCC Total electronic   Diff electronic      SCC error    
    1   -0.10668912E+03    0.00000000E+00    0.27254569E-03
    2   -0.10668974E+03   -0.61862922E-03    0.19712858E-03
    3   -0.10668974E+03   -0.44907210E-07    0.61731665E-04
    4   -0.10668974E+03   -0.10453903E-07    0.24024112E-04
    5   -0.10668974E+03   -0.10861498E-08    0.40494301E-05

Total Energy:                     -104.5473091678 H        -2844.8770 eV
Extrapolated to 0K:               -104.5473091678 H        -2844.8770 eV
Total Mermin free energy:         -104.5473091678 H        -2844.8770 eV
Force related energy:             -104.5473091678 H        -2844.8770 eV

Volume:                              0.107146E+05 au^3   0.158775E+04 A^3
Pressure:                            0.929445E-05 au     0.273452E+09 Pa
Maximal force component:             0.296113E-03
Averaged force norm:                 0.174683E-03
Maximal Lattice force component:     0.342226E-02 au
Averaged lattice force norm:         0.281671E-02 au
>> Charges saved for restart in charges.dat

--------------------------------------------------------------------------------

***  Geometry step: 47, Lattice step: 1

 iSCC Total electronic   Diff electronic      SCC error    
    1   -0.10668974E+03    0.00000000E+00    0.99199744E-05

Total Energy:                     -104.5473091723 H        -2844.8770 eV
Extrapolated to 0K:               -104.5473091723 H        -2844.8770 eV
Total Mermin free energy:         -104.5473091723 H        -2844.8770 eV
Force related energy:             -104.5473091723 H        -2844.8770 eV

Volume:                              0.107146E+05 au^3   0.158775E+04 A^3
Pressure:                            0.929036E-05 au     0.273332E+09 Pa
Maximal force component:             0.278986E-03
Averaged force norm:                 0.169090E-03
Maximal Lattice force component:     0.342073E-02 au
Averaged lattice force norm:         0.281548E-02 au
>> Charges saved for restart in charges.dat

--------------------------------------------------------------------------------

***  Geometry step: 48, Lattice step: 1

 iSCC Total electronic   Diff electronic      SCC error    
    1   -0.10668972E+03    0.00000000E+00    0.71288843E-03
    2   -0.10668903E+03    0.68940726E-03    0.41899961E-03
    3   -0.10668903E+03   -0.24653387E-06    0.14669793E-03
    4   -0.10668903E+03   -0.29711217E-07    0.24859273E-04
    5   -0.10668903E+03   -0.52008176E-08    0.34550358E-05

Total Energy:                     -104.5473104602 H        -2844.8771 eV
Extrapolated to 0K:               -104.5473104602 H        -2844.8771 eV
Total Mermin free energy:         -104.5473104602 H        -2844.8771 eV
Force related energy:             -104.5473104602 H        -2844.8771 eV

Volume:                              0.107146E+05 au^3   0.158775E+04 A^3
Pressure:                            0.927953E-05 au     0.273013E+09 Pa
Maximal force component:             0.437812E-03
Averaged force norm:                 0.211627E-03
Maximal Lattice force component:     0.341720E-02 au
Averaged lattice force norm:         0.281213E-02 au
>> Charges saved for restart in charges.dat

--------------------------------------------------------------------------------

***  Geometry step: 49, Lattice step: 1

 iSCC Total electronic   Diff electronic      SCC error    
    1   -0.10668903E+03    0.00000000E+00    0.26941593E-03
    2   -0.10668930E+03   -0.26343233E-03    0.15803224E-03
    3   -0.10668930E+03   -0.35498388E-07    0.54599850E-04
    4   -0.10668930E+03   -0.42950745E-08    0.90608292E-05

Total Energy:                     -104.5473112541 H        -2844.8771 eV
Extrapolated to 0K:               -104.5473112541 H        -2844.8771 eV
Total Mermin free energy:         -104.5473112541 H        -2844.8771 eV
Force related energy:             -104.5473112541 H        -2844.8771 eV

Volume:                              0.107146E+05 au^3   0.158775E+04 A^3
Pressure:                            0.928462E-05 au     0.273163E+09 Pa
Maximal force component:             0.207450E-03
Averaged force norm:                 0.114051E-03
Maximal Lattice force component:     0.341890E-02 au
Averaged lattice force norm:         0.281370E-02 au
>> Charges saved for restart in charges.dat

--------------------------------------------------------------------------------

***  Geometry step: 50, Lattice step: 1

 iSCC Total electronic   Diff electronic      SCC error    
    1   -0.10668930E+03    0.00000000E+00    0.25959979E-03
    2   -0.10668966E+03   -0.35964152E-03    0.14349374E-03
    3   -0.10668966E+03   -0.20442874E-06    0.71547411E-04
    4   -0.10668966E+03   -0.14213825E-07    0.22130281E-04
    5   -0.10668966E+03   -0.15111397E-08    0.47606561E-05

Total Energy:                     -104.5473113039 H        -2844.8771 eV
Extrapolated to 0K:               -104.5473113039 H        -2844.8771 eV
Total Mermin free energy:         -104.5473113039 H        -2844.8771 eV
Force related energy:             -104.5473113039 H        -2844.8771 eV

Volume:                              0.107146E+05 au^3   0.158775E+04 A^3
Pressure:                            0.945043E-05 au     0.278041E+09 Pa
Maximal force component:             0.453167E-03
Averaged force norm:                 0.209712E-03
Maximal Lattice force component:     0.348058E-02 au
Averaged lattice force norm:         0.286387E-02 au
>> Charges saved for restart in charges.dat

--------------------------------------------------------------------------------

***  Geometry step: 51, Lattice step: 1

 iSCC Total electronic   Diff electronic      SCC error    
    1   -0.10668966E+03    0.00000000E+00    0.13323747E-03
    2   -0.10668948E+03    0.17690724E-03    0.74145815E-04
    3   -0.10668948E+03   -0.49023939E-07    0.35593693E-04
    4   -0.10668948E+03   -0.34301308E-08    0.10892918E-04
    5   -0.10668948E+03   -0.37792347E-09    0.24033479E-05

Total Energy:                     -104.5473120704 H        -2844.8771 eV
Extrapolated to 0K:               -104.5473120704 H        -2844.8771 eV
Total Mermin free energy:         -104.5473120704 H        -2844.8771 eV
Force related energy:             -104.5473120704 H        -2844.8771 eV

Volume:                              0.107146E+05 au^3   0.158775E+04 A^3
Pressure:                            0.936914E-05 au     0.275650E+09 Pa
Maximal force component:             0.147047E-03
Averaged force norm:                 0.906449E-04
Maximal Lattice force component:     0.345034E-02 au
Averaged lattice force norm:         0.283927E-02 au
>> Charges saved for restart in charges.dat

--------------------------------------------------------------------------------

***  Geometry step: 52, Lattice step: 1

 iSCC Total electronic   Diff electronic      SCC error    
    1   -0.10668948E+03    0.00000000E+00    0.90006339E-04
    2   -0.10668959E+03   -0.10771103E-03    0.47028903E-04
    3   -0.10668959E+03   -0.16183890E-07    0.23881900E-04
    4   -0.10668959E+03   -0.15995454E-08    0.74575238E-05

Total Energy:                     -104.5473129212 H        -2844.8771 eV
Extrapolated to 0K:               -104.5473129212 H        -2844.8771 eV
Total Mermin free energy:         -104.5473129212 H        -2844.8771 eV
Force related energy:             -104.5473129212 H        -2844.8771 eV

Volume:                              0.107146E+05 au^3   0.158775E+04 A^3
Pressure:                            0.940256E-05 au     0.276633E+09 Pa
Maximal force component:             0.973404E-04
Averaged force norm:                 0.580150E-04
Maximal Lattice force component:     0.346304E-02 au
Averaged lattice force norm:         0.284935E-02 au
>> Charges saved for restart in charges.dat

--------------------------------------------------------------------------------

***  Geometry step: 53, Lattice step: 1

 iSCC Total electronic   Diff electronic      SCC error    
    1   -0.10668959E+03    0.00000000E+00    0.15184553E-03
    2   -0.10668976E+03   -0.17243270E-03    0.81385722E-04
    3   -0.10668976E+03   -0.41080725E-07    0.38816858E-04
    4   -0.10668976E+03   -0.39084966E-08    0.13190405E-04
    5   -0.10668976E+03   -0.47626258E-09    0.19210916E-05

Total Energy:                     -104.5473125230 H        -2844.8771 eV
Extrapolated to 0K:               -104.5473125230 H        -2844.8771 eV
Total Mermin free energy:         -104.5473125230 H        -2844.8771 eV
Force related energy:             -104.5473125230 H        -2844.8771 eV

Volume:                              0.107146E+05 au^3   0.158775E+04 A^3
Pressure:                            0.946033E-05 au     0.278332E+09 Pa
Maximal force component:             0.244652E-03
Averaged force norm:                 0.144094E-03
Maximal Lattice force component:     0.348500E-02 au
Averaged lattice force norm:         0.286679E-02 au
>> Charges saved for restart in charges.dat

--------------------------------------------------------------------------------

***  Geometry step: 54, Lattice step: 1

 iSCC Total electronic   Diff electronic      SCC error    
    1   -0.10668976E+03    0.00000000E+00    0.98218603E-04
    2   -0.10668964E+03    0.11730408E-03    0.51168594E-04
    3   -0.10668964E+03   -0.19572610E-07    0.27003384E-04
    4   -0.10668964E+03   -0.18943211E-08    0.79913608E-05

Total Energy:                     -104.5473130325 H        -2844.8771 eV
Extrapolated to 0K:               -104.5473130325 H        -2844.8771 eV
Total Mermin free energy:         -104.5473130325 H        -2844.8771 eV
Force related energy:             -104.5473130325 H        -2844.8771 eV

Volume:                              0.107146E+05 au^3   0.158775E+04 A^3
Pressure:                            0.942267E-05 au     0.277224E+09 Pa
Maximal force component:             0.101986E-03
Averaged force norm:                 0.742994E-04
Maximal Lattice force component:     0.347069E-02 au
Averaged lattice force norm:         0.285542E-02 au
>> Charges saved for restart in charges.dat

--------------------------------------------------------------------------------

***  Geometry step: 55, Lattice step: 1

 iSCC Total electronic   Diff electronic      SCC error    
    1   -0.10668964E+03    0.00000000E+00    0.29085567E-03
    2   -0.10668976E+03   -0.11333418E-03    0.12822226E-03
    3   -0.10668976E+03   -0.11334384E-06    0.85152680E-04
    4   -0.10668976E+03   -0.10490695E-07    0.19593789E-04
    5   -0.10668976E+03   -0.13880452E-08    0.28903024E-05

Total Energy:                     -104.5473129940 H        -2844.8771 eV
Extrapolated to 0K:               -104.5473129940 H        -2844.8771 eV
Total Mermin free energy:         -104.5473129940 H        -2844.8771 eV
Force related energy:             -104.5473129940 H        -2844.8771 eV

Volume:                              0.107146E+05 au^3   0.158775E+04 A^3
Pressure:                            0.946866E-05 au     0.278577E+09 Pa
Maximal force component:             0.275487E-03
Averaged force norm:                 0.143666E-03
Maximal Lattice force component:     0.348785E-02 au
Averaged lattice force norm:         0.286933E-02 au
>> Charges saved for restart in charges.dat

--------------------------------------------------------------------------------

***  Geometry step: 56, Lattice step: 1

 iSCC Total electronic   Diff electronic      SCC error    
    1   -0.10668976E+03    0.00000000E+00    0.14748680E-03
    2   -0.10668970E+03    0.58044708E-04    0.64527827E-04
    3   -0.10668970E+03   -0.29984889E-07    0.43626294E-04
    4   -0.10668970E+03   -0.27941809E-08    0.10136952E-04
    5   -0.10668970E+03   -0.36968117E-09    0.15340555E-05

Total Energy:                     -104.5473134070 H        -2844.8771 eV
Extrapolated to 0K:               -104.5473134070 H        -2844.8771 eV
Total Mermin free energy:         -104.5473134070 H        -2844.8771 eV
Force related energy:             -104.5473134070 H        -2844.8771 eV

Volume:                              0.107146E+05 au^3   0.158775E+04 A^3
Pressure:                            0.944481E-05 au     0.277876E+09 Pa
Maximal force component:             0.102060E-03
Averaged force norm:                 0.588065E-04
Maximal Lattice force component:     0.347895E-02 au
Averaged lattice force norm:         0.286212E-02 au
>> Charges saved for restart in charges.dat

--------------------------------------------------------------------------------

***  Geometry step: 57, Lattice step: 1

 iSCC Total electronic   Diff electronic      SCC error    
    1   -0.10668970E+03    0.00000000E+00    0.14779980E-03
    2   -0.10668936E+03    0.33571859E-03    0.95636477E-04
    3   -0.10668936E+03   -0.49744386E-08    0.32154781E-04
    4   -0.10668936E+03   -0.20306885E-08    0.91896825E-05

Total Energy:                     -104.5473135966 H        -2844.8771 eV
Extrapolated to 0K:               -104.5473135966 H        -2844.8771 eV
Total Mermin free energy:         -104.5473135966 H        -2844.8771 eV
Force related energy:             -104.5473135966 H        -2844.8771 eV

Volume:                              0.107146E+05 au^3   0.158775E+04 A^3
Pressure:                            0.940255E-05 au     0.276633E+09 Pa
Maximal force component:             0.115242E-03
Averaged force norm:                 0.737613E-04
Maximal Lattice force component:     0.346318E-02 au
Averaged lattice force norm:         0.284934E-02 au
>> Charges saved for restart in charges.dat

--------------------------------------------------------------------------------

***  Geometry step: 58, Lattice step: 1

 iSCC Total electronic   Diff electronic      SCC error    
    1   -0.10668936E+03    0.00000000E+00    0.34809340E-04
    2   -0.10668945E+03   -0.89265926E-04    0.22922871E-04
    3   -0.10668945E+03   -0.47202775E-09    0.77216341E-05

Total Energy:                     -104.5473136249 H        -2844.8771 eV
Extrapolated to 0K:               -104.5473136249 H        -2844.8771 eV
Total Mermin free energy:         -104.5473136249 H        -2844.8771 eV
Force related energy:             -104.5473136249 H        -2844.8771 eV

Volume:                              0.107146E+05 au^3   0.158775E+04 A^3
Pressure:                            0.941188E-05 au     0.276907E+09 Pa
Maximal force component:             0.757893E-04
Averaged force norm:                 0.517382E-04
Maximal Lattice force component:     0.346665E-02 au
Averaged lattice force norm:         0.285216E-02 au
>> Charges saved for restart in charges.dat

--------------------------------------------------------------------------------

***  Geometry step: 59, Lattice step: 1

 iSCC Total electronic   Diff electronic      SCC error    
    1   -0.10668945E+03    0.00000000E+00    0.77216341E-05

Total Energy:                     -104.5473136249 H        -2844.8771 eV
Extrapolated to 0K:               -104.5473136249 H        -2844.8771 eV
Total Mermin free energy:         -104.5473136249 H        -2844.8771 eV
Force related energy:             -104.5473136249 H        -2844.8771 eV

Volume:                              0.107146E+05 au^3   0.158775E+04 A^3
Pressure:                            0.941188E-05 au     0.276907E+09 Pa
Maximal force component:             0.757893E-04
Averaged force norm:                 0.517382E-04
Maximal Lattice force component:     0.346665E-02 au
Averaged lattice force norm:         0.285216E-02 au
>> Charges saved for restart in charges.dat

--------------------------------------------------------------------------------

***  Geometry step: 60, Lattice step: 2

 iSCC Total electronic   Diff electronic      SCC error    
    1   -0.10668945E+03    0.00000000E+00    0.47012343E-02
    2   -0.10658579E+03    0.10365663E+00    0.27864135E-02
    3   -0.10658580E+03   -0.63577341E-05    0.55565530E-03
    4   -0.10658580E+03   -0.19693570E-05    0.17941394E-03
    5   -0.10658580E+03   -0.11031641E-06    0.26807094E-04
    6   -0.10658580E+03   -0.16460788E-07    0.75074485E-05

Total Energy:                     -104.5466980486 H        -2844.8604 eV
Extrapolated to 0K:               -104.5466980486 H        -2844.8604 eV
Total Mermin free energy:         -104.5466980486 H        -2844.8604 eV
Force related energy:             -104.5466980486 H        -2844.8604 eV

Volume:                              0.108114E+05 au^3   0.160208E+04 A^3
Pressure:                           -0.195193E-04 au    -0.574277E+09 Pa
Maximal force component:             0.739397E-02
Averaged force norm:                 0.320060E-02
Maximal Lattice force component:     0.731132E-02 au
Averaged lattice force norm:         0.597024E-02 au
>> Charges saved for restart in charges.dat

--------------------------------------------------------------------------------

***  Geometry step: 61, Lattice step: 2

 iSCC Total electronic   Diff electronic      SCC error    
[...]
    6   -0.10666621E+03   -0.34119267E-08    0.39677415E-05

Total Energy:                     -104.5478531424 H        -2844.8918 eV
Extrapolated to 0K:               -104.5478531424 H        -2844.8918 eV
Total Mermin free energy:         -104.5478531424 H        -2844.8918 eV
Force related energy:             -104.5478531424 H        -2844.8918 eV

Volume:                              0.107985E+05 au^3   0.160017E+04 A^3
Pressure:                            0.180867E-06 au     0.532129E+07 Pa
Maximal force component:             0.130619E-02
Averaged force norm:                 0.537882E-03
Maximal Lattice force component:     0.661705E-03 au
Averaged lattice force norm:         0.382280E-03 au
>> Charges saved for restart in charges.dat

--------------------------------------------------------------------------------

***  Geometry step: 94, Lattice step: 3

 iSCC Total electronic   Diff electronic      SCC error    
    1   -0.10666621E+03    0.00000000E+00    0.10248072E-02
    2   -0.10666171E+03    0.45057791E-02    0.65628740E-03
    3   -0.10666171E+03   -0.74389446E-06    0.30413106E-03
    4   -0.10666171E+03   -0.17781713E-06    0.92160783E-04
    5   -0.10666171E+03   -0.13884389E-07    0.16544284E-04
    6   -0.10666171E+03   -0.17206077E-08    0.23734274E-05

Total Energy:                     -104.5478599366 H        -2844.8920 eV
Extrapolated to 0K:               -104.5478599366 H        -2844.8920 eV
Total Mermin free energy:         -104.5478599366 H        -2844.8920 eV
Force related energy:             -104.5478599366 H        -2844.8920 eV

Volume:                              0.107985E+05 au^3   0.160017E+04 A^3
Pressure:                           -0.769468E-06 au    -0.226385E+08 Pa
Maximal force component:             0.272106E-03
Averaged force norm:                 0.115680E-03
Maximal Lattice force component:     0.683815E-03 au
Averaged lattice force norm:         0.483208E-03 au
>> Charges saved for restart in charges.dat

--------------------------------------------------------------------------------

***  Geometry step: 95, Lattice step: 3

 iSCC Total electronic   Diff electronic      SCC error    
    1   -0.10666171E+03    0.00000000E+00    0.15666700E-03
    2   -0.10666251E+03   -0.80651994E-03    0.10612315E-03
    3   -0.10666251E+03   -0.47960640E-08    0.30624081E-04
    4   -0.10666251E+03   -0.23143087E-08    0.82682189E-05

Total Energy:                     -104.5478609679 H        -2844.8920 eV
Extrapolated to 0K:               -104.5478609679 H        -2844.8920 eV
Total Mermin free energy:         -104.5478609679 H        -2844.8920 eV
Force related energy:             -104.5478609679 H        -2844.8920 eV

Volume:                              0.107985E+05 au^3   0.160017E+04 A^3
Pressure:                           -0.547870E-06 au    -0.161189E+08 Pa
Maximal force component:             0.117049E-03
Averaged force norm:                 0.673535E-04
Maximal Lattice force component:     0.686409E-03 au
Averaged lattice force norm:         0.448949E-03 au
>> Charges saved for restart in charges.dat

--------------------------------------------------------------------------------

***  Geometry step: 96, Lattice step: 3

 iSCC Total electronic   Diff electronic      SCC error    
    1   -0.10666251E+03    0.00000000E+00    0.26021422E-03
    2   -0.10666382E+03   -0.13047259E-02    0.17525276E-03
    3   -0.10666382E+03   -0.12106057E-07    0.50458132E-04
    4   -0.10666382E+03   -0.55708824E-08    0.14629244E-04
    5   -0.10666382E+03   -0.23459279E-09    0.30631885E-05

Total Energy:                     -104.5478610185 H        -2844.8920 eV
Extrapolated to 0K:               -104.5478610185 H        -2844.8920 eV
Total Mermin free energy:         -104.5478610185 H        -2844.8920 eV
Force related energy:             -104.5478610185 H        -2844.8920 eV

Volume:                              0.107985E+05 au^3   0.160017E+04 A^3
Pressure:                           -0.191762E-06 au    -0.564183E+07 Pa
Maximal force component:             0.279711E-03
Averaged force norm:                 0.122068E-03
Maximal Lattice force component:     0.691064E-03 au
Averaged lattice force norm:         0.411886E-03 au
>> Charges saved for restart in charges.dat

--------------------------------------------------------------------------------

***  Geometry step: 97, Lattice step: 3

 iSCC Total electronic   Diff electronic      SCC error    
    1   -0.10666382E+03    0.00000000E+00    0.12186595E-03
    2   -0.10666320E+03    0.62104375E-03    0.82492521E-04
    3   -0.10666320E+03   -0.28598208E-08    0.23855087E-04
    4   -0.10666320E+03   -0.13784671E-08    0.65032253E-05

Total Energy:                     -104.5478612439 H        -2844.8921 eV
Extrapolated to 0K:               -104.5478612439 H        -2844.8921 eV
Total Mermin free energy:         -104.5478612439 H        -2844.8921 eV
Force related energy:             -104.5478612439 H        -2844.8921 eV

Volume:                              0.107985E+05 au^3   0.160017E+04 A^3
Pressure:                           -0.362368E-06 au    -0.106612E+08 Pa
Maximal force component:             0.190614E-03
Averaged force norm:                 0.790788E-04
Maximal Lattice force component:     0.689065E-03 au
Averaged lattice force norm:         0.426727E-03 au
>> Charges saved for restart in charges.dat

--------------------------------------------------------------------------------

***  Geometry step: 98, Lattice step: 3

 iSCC Total electronic   Diff electronic      SCC error    
    1   -0.10666320E+03    0.00000000E+00    0.76368401E-03
    2   -0.10666416E+03   -0.96071366E-03    0.39163771E-03
    3   -0.10666416E+03   -0.63098432E-06    0.14812489E-03
    4   -0.10666416E+03   -0.71659969E-07    0.38082094E-04
    5   -0.10666416E+03   -0.83200291E-08    0.35087079E-05

Total Energy:                     -104.5478601508 H        -2844.8920 eV
Extrapolated to 0K:               -104.5478601508 H        -2844.8920 eV
Total Mermin free energy:         -104.5478601508 H        -2844.8920 eV
Force related energy:             -104.5478601508 H        -2844.8920 eV

Volume:                              0.107985E+05 au^3   0.160017E+04 A^3
Pressure:                           -0.775849E-07 au    -0.228262E+07 Pa
Maximal force component:             0.529646E-03
Averaged force norm:                 0.215053E-03
Maximal Lattice force component:     0.702886E-03 au
Averaged lattice force norm:         0.411481E-03 au
>> Charges saved for restart in charges.dat

--------------------------------------------------------------------------------

***  Geometry step: 99, Lattice step: 3

 iSCC Total electronic   Diff electronic      SCC error    
    1   -0.10666416E+03    0.00000000E+00    0.53107828E-03
    2   -0.10666349E+03    0.66833406E-03    0.27298260E-03
    3   -0.10666349E+03   -0.30102704E-06    0.10140555E-03
    4   -0.10666349E+03   -0.34125577E-07    0.25938285E-04
    5   -0.10666349E+03   -0.39900954E-08    0.23563248E-05

Total Energy:                     -104.5478615028 H        -2844.8921 eV
Extrapolated to 0K:               -104.5478615028 H        -2844.8921 eV
Total Mermin free energy:         -104.5478615028 H        -2844.8921 eV
Force related energy:             -104.5478615028 H        -2844.8921 eV

Volume:                              0.107985E+05 au^3   0.160017E+04 A^3
Pressure:                           -0.274512E-06 au    -0.807641E+07 Pa
Maximal force component:             0.792652E-04
Averaged force norm:                 0.359410E-04
Maximal Lattice force component:     0.693189E-03 au
Averaged lattice force norm:         0.420101E-03 au
>> Charges saved for restart in charges.dat

--------------------------------------------------------------------------------

***  Geometry step: 100, Lattice step: 3

 iSCC Total electronic   Diff electronic      SCC error    
    1   -0.10666349E+03    0.00000000E+00    0.23563248E-05

Total Energy:                     -104.5478615028 H        -2844.8921 eV
Extrapolated to 0K:               -104.5478615028 H        -2844.8921 eV
Total Mermin free energy:         -104.5478615028 H        -2844.8921 eV
Force related energy:             -104.5478615028 H        -2844.8921 eV

Volume:                              0.107985E+05 au^3   0.160017E+04 A^3
Pressure:                           -0.274512E-06 au    -0.807641E+07 Pa
Maximal force component:             0.792652E-04
Averaged force norm:                 0.359410E-04
Maximal Lattice force component:     0.693189E-03 au
Averaged lattice force norm:         0.420101E-03 au
>> Charges saved for restart in charges.dat

--------------------------------------------------------------------------------

***  Geometry step: 101, Lattice step: 4

 iSCC Total electronic   Diff electronic      SCC error    
    1   -0.10666349E+03    0.00000000E+00    0.27469897E-03
    2   -0.10666753E+03   -0.40351143E-02    0.16348919E-03
    3   -0.10666753E+03   -0.43957058E-07    0.40804061E-04
    4   -0.10666753E+03   -0.11904575E-07    0.12058518E-04
    5   -0.10666753E+03   -0.66684436E-09    0.17351778E-05

Total Energy:                     -104.5478636974 H        -2844.8921 eV
Extrapolated to 0K:               -104.5478636974 H        -2844.8921 eV
Total Mermin free energy:         -104.5478636974 H        -2844.8921 eV
Force related energy:             -104.5478636974 H        -2844.8921 eV

Volume:                              0.108085E+05 au^3   0.160166E+04 A^3
Pressure:                            0.670693E-06 au     0.197325E+08 Pa
Maximal force component:             0.304417E-03
Averaged force norm:                 0.131349E-03
Maximal Lattice force component:     0.252563E-03 au
Averaged lattice force norm:         0.205698E-03 au
>> Charges saved for restart in charges.dat

--------------------------------------------------------------------------------

***  Geometry step: 102, Lattice step: 4

 iSCC Total electronic   Diff electronic      SCC error    
    1   -0.10666753E+03    0.00000000E+00    0.11561551E-02
    2   -0.10666174E+03    0.57895243E-02    0.78230109E-03
    3   -0.10666174E+03   -0.40896929E-06    0.20736199E-03
    4   -0.10666174E+03   -0.19955083E-06    0.74556988E-04
    5   -0.10666174E+03   -0.85530871E-08    0.19626304E-04
    6   -0.10666174E+03   -0.19093136E-08    0.31098876E-05

Total Energy:                     -104.5478577411 H        -2844.8920 eV
Extrapolated to 0K:               -104.5478577411 H        -2844.8920 eV
Total Mermin free energy:         -104.5478577411 H        -2844.8920 eV
Force related energy:             -104.5478577411 H        -2844.8920 eV

Volume:                              0.108085E+05 au^3   0.160166E+04 A^3
Pressure:                           -0.571465E-06 au    -0.168131E+08 Pa
Maximal force component:             0.114748E-02
Averaged force norm:                 0.524726E-03
Maximal Lattice force component:     0.217480E-03 au
Averaged lattice force norm:         0.176624E-03 au
>> Charges saved for restart in charges.dat

--------------------------------------------------------------------------------

***  Geometry step: 103, Lattice step: 4

 iSCC Total electronic   Diff electronic      SCC error    
    1   -0.10666174E+03    0.00000000E+00    0.85755893E-03
    2   -0.10666605E+03   -0.43083332E-02    0.58372330E-03
    3   -0.10666605E+03   -0.22592646E-06    0.15462130E-03
    4   -0.10666605E+03   -0.11032625E-06    0.55766205E-04
    5   -0.10666605E+03   -0.47461128E-08    0.14532481E-04
    6   -0.10666605E+03   -0.10619345E-08    0.23046835E-05

Total Energy:                     -104.5478644889 H        -2844.8921 eV
Extrapolated to 0K:               -104.5478644889 H        -2844.8921 eV
Total Mermin free energy:         -104.5478644889 H        -2844.8921 eV
Force related energy:             -104.5478644889 H        -2844.8921 eV

Volume:                              0.108085E+05 au^3   0.160166E+04 A^3
Pressure:                            0.352394E-06 au     0.103678E+08 Pa
Maximal force component:             0.203469E-03
Averaged force norm:                 0.919837E-04
Maximal Lattice force component:     0.132134E-03 au
Averaged lattice force norm:         0.107820E-03 au
>> Charges saved for restart in charges.dat

--------------------------------------------------------------------------------

***  Geometry step: 104, Lattice step: 4

 iSCC Total electronic   Diff electronic      SCC error    
    1   -0.10666605E+03    0.00000000E+00    0.13572498E-03
    2   -0.10666538E+03    0.66991864E-03    0.83965641E-04
    3   -0.10666538E+03   -0.37051535E-08    0.29935670E-04
    4   -0.10666538E+03   -0.56731153E-09    0.65071173E-05

Total Energy:                     -104.5478651231 H        -2844.8922 eV
Extrapolated to 0K:               -104.5478651231 H        -2844.8922 eV
Total Mermin free energy:         -104.5478651231 H        -2844.8922 eV
Force related energy:             -104.5478651231 H        -2844.8922 eV

Volume:                              0.108085E+05 au^3   0.160166E+04 A^3
Pressure:                            0.170483E-06 au     0.501579E+07 Pa
Maximal force component:             0.964068E-04
Averaged force norm:                 0.536800E-04
Maximal Lattice force component:     0.639972E-04 au
Averaged lattice force norm:         0.521378E-04 au
>> Charges saved for restart in charges.dat

--------------------------------------------------------------------------------

***  Geometry step: 105, Lattice step: 4

 iSCC Total electronic   Diff electronic      SCC error    
    1   -0.10666538E+03    0.00000000E+00    0.22139340E-03
    2   -0.10666429E+03    0.10842562E-02    0.13673745E-03
    3   -0.10666429E+03   -0.96646033E-08    0.48847831E-04
    4   -0.10666429E+03   -0.13239543E-08    0.98658379E-05

Total Energy:                     -104.5478649894 H        -2844.8922 eV
Extrapolated to 0K:               -104.5478649894 H        -2844.8922 eV
Total Mermin free energy:         -104.5478649894 H        -2844.8922 eV
Force related energy:             -104.5478649894 H        -2844.8922 eV

Volume:                              0.108085E+05 au^3   0.160166E+04 A^3
Pressure:                           -0.122835E-06 au    -0.361394E+07 Pa
Maximal force component:             0.281138E-03
Averaged force norm:                 0.116010E-03
Maximal Lattice force component:     0.463716E-04 au
Averaged lattice force norm:         0.376460E-04 au
>> Charges saved for restart in charges.dat

--------------------------------------------------------------------------------

***  Geometry step: 106, Lattice step: 4

 iSCC Total electronic   Diff electronic      SCC error    
    1   -0.10666429E+03    0.00000000E+00    0.13136013E-03
    2   -0.10666494E+03   -0.64623519E-03    0.81478510E-04
    3   -0.10666494E+03   -0.36362309E-08    0.29387852E-04
    4   -0.10666494E+03   -0.69780981E-09    0.73953081E-05

Total Energy:                     -104.5478652417 H        -2844.8922 eV
Extrapolated to 0K:               -104.5478652417 H        -2844.8922 eV
Total Mermin free energy:         -104.5478652417 H        -2844.8922 eV
Force related energy:             -104.5478652417 H        -2844.8922 eV

Volume:                              0.108085E+05 au^3   0.160166E+04 A^3
Pressure:                            0.550556E-07 au     0.161979E+07 Pa
Maximal force component:             0.165647E-03
Averaged force norm:                 0.655114E-04
Maximal Lattice force component:     0.207967E-04 au
Averaged lattice force norm:         0.168261E-04 au
>> Charges saved for restart in charges.dat

--------------------------------------------------------------------------------

***  Geometry step: 107, Lattice step: 4

 iSCC Total electronic   Diff electronic      SCC error    
    1   -0.10666494E+03    0.00000000E+00    0.53505147E-03
    2   -0.10666438E+03    0.56204127E-03    0.30939822E-03
    3   -0.10666438E+03   -0.35920516E-06    0.13410730E-03
    4   -0.10666438E+03   -0.42391463E-07    0.27256092E-04
    5   -0.10666438E+03   -0.54811125E-08    0.33349465E-05

Total Energy:                     -104.5478648825 H        -2844.8921 eV
Extrapolated to 0K:               -104.5478648825 H        -2844.8921 eV
Total Mermin free energy:         -104.5478648825 H        -2844.8921 eV
Force related energy:             -104.5478648825 H        -2844.8921 eV

Volume:                              0.108085E+05 au^3   0.160166E+04 A^3
Pressure:                           -0.111762E-06 au    -0.328816E+07 Pa
Maximal force component:             0.356207E-03
Averaged force norm:                 0.135924E-03
Maximal Lattice force component:     0.412212E-04 au
Averaged lattice force norm:         0.340958E-04 au
>> Charges saved for restart in charges.dat

--------------------------------------------------------------------------------

***  Geometry step: 108, Lattice step: 4

 iSCC Total electronic   Diff electronic      SCC error    
    1   -0.10666438E+03    0.00000000E+00    0.34002256E-03
    2   -0.10666473E+03   -0.35439032E-03    0.19071627E-03
    3   -0.10666473E+03   -0.14152901E-06    0.82588315E-04
    4   -0.10666473E+03   -0.16546423E-07    0.16781614E-04
    5   -0.10666473E+03   -0.21573499E-08    0.20007627E-05

Total Energy:                     -104.5478654243 H        -2844.8922 eV
Extrapolated to 0K:               -104.5478654243 H        -2844.8922 eV
Total Mermin free energy:         -104.5478654243 H        -2844.8922 eV
Force related energy:             -104.5478654243 H        -2844.8922 eV

Volume:                              0.108085E+05 au^3   0.160166E+04 A^3
Pressure:                           -0.753154E-08 au    -0.221585E+06 Pa
Maximal force component:             0.656747E-04
Averaged force norm:                 0.279029E-04
Maximal Lattice force component:     0.308425E-05 au
Averaged lattice force norm:         0.276541E-05 au
>> Charges saved for restart in charges.dat

--------------------------------------------------------------------------------

***  Geometry step: 109, Lattice step: 4

 iSCC Total electronic   Diff electronic      SCC error    
    1   -0.10666473E+03    0.00000000E+00    0.20007627E-05

Total Energy:                     -104.5478654243 H        -2844.8922 eV
Extrapolated to 0K:               -104.5478654243 H        -2844.8922 eV
Total Mermin free energy:         -104.5478654243 H        -2844.8922 eV
Force related energy:             -104.5478654243 H        -2844.8922 eV

Volume:                              0.108085E+05 au^3   0.160166E+04 A^3
Pressure:                           -0.753154E-08 au    -0.221585E+06 Pa
Maximal force component:             0.656747E-04
Averaged force norm:                 0.279029E-04
Maximal Lattice force component:     0.308425E-05 au
Averaged lattice force norm:         0.276541E-05 au
>> Charges saved for restart in charges.dat

Geometry converged

--------------------------------------------------------------------------------
DFTB+ running times                          cpu [s]             wall clock [s]
--------------------------------------------------------------------------------
Global initialisation                  +       0.00 (  0.0%)       0.04 (  0.0%)
Pre-SCC initialisation                 +       1.62 (  0.7%)       1.63 (  0.7%)
SCC                                    +     219.32 ( 94.2%)     224.62 ( 93.1%)
Post-SCC processing                    +       7.60 (  3.3%)       8.90 (  3.7%)
Post-geometry optimisation             +       0.01 (  0.0%)       0.02 (  0.0%)
--------------------------------------------------------------------------------
Missing                                +       4.34 (  1.9%)       6.05 (  2.5%)
Total                                  =     232.89 (100.0%)     241.26 (100.0%)
--------------------------------------------------------------------------------
